VARIABLES = "CoordinateX", "CoordinateY", "CoordinateZ"
Zone T="FFD_vol0" I=10 J=2 K=2
DATAPACKING=POINT
1.000000 -0.057189 0.000000 
0.973716 0.114352 0.000000 
0.899672 0.212908 0.000000 
0.763006 0.316857 0.000000 
0.615441 0.345553 0.000000 
0.384559 0.345553 0.000000 
0.236994 0.316857 0.000000 
0.100328 0.212908 0.000000 
0.026284 0.114352 0.000000 
0.000000 -0.057189 0.000000 
1.000000 -0.067189 0.000000 
0.962798 0.016469 0.000000 
0.913486 0.063609 0.000000 
0.797974 0.160039 0.000000 
0.643930 0.214033 0.000000 
0.356070 0.214033 0.000000 
0.202026 0.160039 0.000000 
0.086514 0.063609 0.000000 
0.037202 0.016469 0.000000 
0.000000 -0.067189 0.000000 
1.000000 -0.057189 0.100000 
0.973716 0.114352 0.100000 
0.899672 0.212908 0.100000 
0.763006 0.316857 0.100000 
0.615441 0.345553 0.100000 
0.384559 0.345553 0.100000 
0.236994 0.316857 0.100000 
0.100328 0.212908 0.100000 
0.026284 0.114352 0.100000 
0.000000 -0.057189 0.100000 
1.000000 -0.067189 0.100000 
0.962798 0.016469 0.100000 
0.913486 0.063609 0.100000 
0.797974 0.160039 0.100000 
0.643930 0.214033 0.100000 
0.356070 0.214033 0.100000 
0.202026 0.160039 0.100000 
0.086514 0.063609 0.100000 
0.037202 0.016469 0.100000 
0.000000 -0.067189 0.100000 
Zone T="embedding_vol" I=28 J=4 K=4
DATAPACKING=POINT
1.000000 -0.057189 0.000000 
0.990850 -0.004379 0.000000 
0.980958 0.040320 0.000000 
0.970376 0.077855 0.000000 
0.947360 0.135217 0.000000 
0.922228 0.175273 0.000000 
0.895405 0.205594 0.000000 
0.852785 0.244926 0.000000 
0.807865 0.278221 0.000000 
0.761190 0.304315 0.000000 
0.712765 0.322529 0.000000 
0.660448 0.334106 0.000000 
0.601555 0.340770 0.000000 
0.534880 0.343959 0.000000 
0.465120 0.343959 0.000000 
0.398445 0.340770 0.000000 
0.339552 0.334106 0.000000 
0.287235 0.322529 0.000000 
0.238810 0.304315 0.000000 
0.192135 0.278221 0.000000 
0.147215 0.244926 0.000000 
0.104595 0.205594 0.000000 
0.077772 0.175273 0.000000 
0.052640 0.135217 0.000000 
0.029624 0.077855 0.000000 
0.019042 0.040320 0.000000 
0.009150 -0.004379 0.000000 
0.000000 -0.057189 0.000000 
1.000000 -0.060522 0.000000 
0.989912 -0.016733 0.000000 
0.979586 0.020343 0.000000 
0.969004 0.051512 0.000000 
0.946999 0.099358 0.000000 
0.923753 0.133267 0.000000 
0.899124 0.159695 0.000000 
0.859421 0.195538 0.000000 
0.816683 0.227467 0.000000 
0.771310 0.253865 0.000000 
0.723143 0.273555 0.000000 
0.669776 0.287106 0.000000 
0.608246 0.295525 0.000000 
0.537318 0.299650 0.000000 
0.462682 0.299650 0.000000 
0.391754 0.295525 0.000000 
0.330224 0.287106 0.000000 
0.276857 0.273555 0.000000 
0.228690 0.253865 0.000000 
0.183317 0.227467 0.000000 
0.140579 0.195538 0.000000 
0.100876 0.159695 0.000000 
0.076247 0.133267 0.000000 
0.053001 0.099358 0.000000 
0.030996 0.051512 0.000000 
0.020414 0.020343 0.000000 
0.010088 -0.016733 0.000000 
0.000000 -0.060522 0.000000 
1.000000 -0.063856 0.000000 
0.988975 -0.029086 0.000000 
0.978215 0.000365 0.000000 
0.967632 0.025168 0.000000 
0.946637 0.063500 0.000000 
0.925278 0.091260 0.000000 
0.902843 0.113795 0.000000 
0.866057 0.146149 0.000000 
0.825501 0.176713 0.000000 
0.781431 0.203416 0.000000 
0.733520 0.224582 0.000000 
0.679104 0.240106 0.000000 
0.614937 0.250279 0.000000 
0.539756 0.255341 0.000000 
0.460244 0.255341 0.000000 
0.385063 0.250279 0.000000 
0.320896 0.240106 0.000000 
0.266480 0.224582 0.000000 
0.218569 0.203416 0.000000 
0.174499 0.176713 0.000000 
0.133943 0.146149 0.000000 
0.097157 0.113795 0.000000 
0.074722 0.091260 0.000000 
0.053363 0.063500 0.000000 
0.032368 0.025168 0.000000 
0.021785 0.000365 0.000000 
0.011025 -0.029086 0.000000 
0.000000 -0.063856 0.000000 
1.000000 -0.067189 0.000000 
0.988037 -0.041440 0.000000 
0.976844 -0.019612 0.000000 
0.966259 -0.001176 0.000000 
0.946275 0.027642 0.000000 
0.926804 0.049253 0.000000 
0.906562 0.067896 0.000000 
0.872693 0.096761 0.000000 
0.834319 0.125959 0.000000 
0.791552 0.152966 0.000000 
0.743897 0.175608 0.000000 
0.688432 0.193106 0.000000 
0.621627 0.205034 0.000000 
0.542195 0.211033 0.000000 
0.457805 0.211033 0.000000 
0.378373 0.205034 0.000000 
0.311568 0.193106 0.000000 
0.256103 0.175608 0.000000 
0.208448 0.152966 0.000000 
0.165681 0.125959 0.000000 
0.127307 0.096761 0.000000 
0.093438 0.067896 0.000000 
0.073196 0.049253 0.000000 
0.053725 0.027642 0.000000 
0.033741 -0.001176 0.000000 
0.023156 -0.019612 0.000000 
0.011963 -0.041440 0.000000 
0.000000 -0.067189 0.000000 
1.000000 -0.057189 0.033333 
0.990850 -0.004379 0.033333 
0.980958 0.040320 0.033333 
0.970376 0.077855 0.033333 
0.947360 0.135217 0.033333 
0.922228 0.175273 0.033333 
0.895405 0.205594 0.033333 
0.852785 0.244926 0.033333 
0.807865 0.278221 0.033333 
0.761190 0.304315 0.033333 
0.712765 0.322529 0.033333 
0.660448 0.334106 0.033333 
0.601555 0.340770 0.033333 
0.534880 0.343959 0.033333 
0.465120 0.343959 0.033333 
0.398445 0.340770 0.033333 
0.339552 0.334106 0.033333 
0.287235 0.322529 0.033333 
0.238810 0.304315 0.033333 
0.192135 0.278221 0.033333 
0.147215 0.244926 0.033333 
0.104595 0.205594 0.033333 
0.077772 0.175273 0.033333 
0.052640 0.135217 0.033333 
0.029624 0.077855 0.033333 
0.019042 0.040320 0.033333 
0.009150 -0.004379 0.033333 
0.000000 -0.057189 0.033333 
1.000000 -0.060522 0.033333 
0.989912 -0.016733 0.033333 
0.979586 0.020343 0.033333 
0.969004 0.051512 0.033333 
0.946999 0.099358 0.033333 
0.923753 0.133267 0.033333 
0.899124 0.159695 0.033333 
0.859421 0.195538 0.033333 
0.816683 0.227467 0.033333 
0.771310 0.253865 0.033333 
0.723143 0.273555 0.033333 
0.669776 0.287106 0.033333 
0.608246 0.295525 0.033333 
0.537318 0.299650 0.033333 
0.462682 0.299650 0.033333 
0.391754 0.295525 0.033333 
0.330224 0.287106 0.033333 
0.276857 0.273555 0.033333 
0.228690 0.253865 0.033333 
0.183317 0.227467 0.033333 
0.140579 0.195538 0.033333 
0.100876 0.159695 0.033333 
0.076247 0.133267 0.033333 
0.053001 0.099358 0.033333 
0.030996 0.051512 0.033333 
0.020414 0.020343 0.033333 
0.010088 -0.016733 0.033333 
0.000000 -0.060522 0.033333 
1.000000 -0.063856 0.033333 
0.988975 -0.029086 0.033333 
0.978215 0.000365 0.033333 
0.967632 0.025168 0.033333 
0.946637 0.063500 0.033333 
0.925278 0.091260 0.033333 
0.902843 0.113795 0.033333 
0.866057 0.146149 0.033333 
0.825501 0.176713 0.033333 
0.781431 0.203416 0.033333 
0.733520 0.224582 0.033333 
0.679104 0.240106 0.033333 
0.614937 0.250279 0.033333 
0.539756 0.255341 0.033333 
0.460244 0.255341 0.033333 
0.385063 0.250279 0.033333 
0.320896 0.240106 0.033333 
0.266480 0.224582 0.033333 
0.218569 0.203416 0.033333 
0.174499 0.176713 0.033333 
0.133943 0.146149 0.033333 
0.097157 0.113795 0.033333 
0.074722 0.091260 0.033333 
0.053363 0.063500 0.033333 
0.032368 0.025168 0.033333 
0.021785 0.000365 0.033333 
0.011025 -0.029086 0.033333 
0.000000 -0.063856 0.033333 
1.000000 -0.067189 0.033333 
0.988037 -0.041440 0.033333 
0.976844 -0.019612 0.033333 
0.966259 -0.001176 0.033333 
0.946275 0.027642 0.033333 
0.926804 0.049253 0.033333 
0.906562 0.067896 0.033333 
0.872693 0.096761 0.033333 
0.834319 0.125959 0.033333 
0.791552 0.152966 0.033333 
0.743897 0.175608 0.033333 
0.688432 0.193106 0.033333 
0.621627 0.205034 0.033333 
0.542195 0.211033 0.033333 
0.457805 0.211033 0.033333 
0.378373 0.205034 0.033333 
0.311568 0.193106 0.033333 
0.256103 0.175608 0.033333 
0.208448 0.152966 0.033333 
0.165681 0.125959 0.033333 
0.127307 0.096761 0.033333 
0.093438 0.067896 0.033333 
0.073196 0.049253 0.033333 
0.053725 0.027642 0.033333 
0.033741 -0.001176 0.033333 
0.023156 -0.019612 0.033333 
0.011963 -0.041440 0.033333 
0.000000 -0.067189 0.033333 
1.000000 -0.057189 0.066667 
0.990850 -0.004379 0.066667 
0.980958 0.040320 0.066667 
0.970376 0.077855 0.066667 
0.947360 0.135217 0.066667 
0.922228 0.175273 0.066667 
0.895405 0.205594 0.066667 
0.852785 0.244926 0.066667 
0.807865 0.278221 0.066667 
0.761190 0.304315 0.066667 
0.712765 0.322529 0.066667 
0.660448 0.334106 0.066667 
0.601555 0.340770 0.066667 
0.534880 0.343959 0.066667 
0.465120 0.343959 0.066667 
0.398445 0.340770 0.066667 
0.339552 0.334106 0.066667 
0.287235 0.322529 0.066667 
0.238810 0.304315 0.066667 
0.192135 0.278221 0.066667 
0.147215 0.244926 0.066667 
0.104595 0.205594 0.066667 
0.077772 0.175273 0.066667 
0.052640 0.135217 0.066667 
0.029624 0.077855 0.066667 
0.019042 0.040320 0.066667 
0.009150 -0.004379 0.066667 
0.000000 -0.057189 0.066667 
1.000000 -0.060522 0.066667 
0.989912 -0.016733 0.066667 
0.979586 0.020343 0.066667 
0.969004 0.051512 0.066667 
0.946999 0.099358 0.066667 
0.923753 0.133267 0.066667 
0.899124 0.159695 0.066667 
0.859421 0.195538 0.066667 
0.816683 0.227467 0.066667 
0.771310 0.253865 0.066667 
0.723143 0.273555 0.066667 
0.669776 0.287106 0.066667 
0.608246 0.295525 0.066667 
0.537318 0.299650 0.066667 
0.462682 0.299650 0.066667 
0.391754 0.295525 0.066667 
0.330224 0.287106 0.066667 
0.276857 0.273555 0.066667 
0.228690 0.253865 0.066667 
0.183317 0.227467 0.066667 
0.140579 0.195538 0.066667 
0.100876 0.159695 0.066667 
0.076247 0.133267 0.066667 
0.053001 0.099358 0.066667 
0.030996 0.051512 0.066667 
0.020414 0.020343 0.066667 
0.010088 -0.016733 0.066667 
0.000000 -0.060522 0.066667 
1.000000 -0.063856 0.066667 
0.988975 -0.029086 0.066667 
0.978215 0.000365 0.066667 
0.967632 0.025168 0.066667 
0.946637 0.063500 0.066667 
0.925278 0.091260 0.066667 
0.902843 0.113795 0.066667 
0.866057 0.146149 0.066667 
0.825501 0.176713 0.066667 
0.781431 0.203416 0.066667 
0.733520 0.224582 0.066667 
0.679104 0.240106 0.066667 
0.614937 0.250279 0.066667 
0.539756 0.255341 0.066667 
0.460244 0.255341 0.066667 
0.385063 0.250279 0.066667 
0.320896 0.240106 0.066667 
0.266480 0.224582 0.066667 
0.218569 0.203416 0.066667 
0.174499 0.176713 0.066667 
0.133943 0.146149 0.066667 
0.097157 0.113795 0.066667 
0.074722 0.091260 0.066667 
0.053363 0.063500 0.066667 
0.032368 0.025168 0.066667 
0.021785 0.000365 0.066667 
0.011025 -0.029086 0.066667 
0.000000 -0.063856 0.066667 
1.000000 -0.067189 0.066667 
0.988037 -0.041440 0.066667 
0.976844 -0.019612 0.066667 
0.966259 -0.001176 0.066667 
0.946275 0.027642 0.066667 
0.926804 0.049253 0.066667 
0.906562 0.067896 0.066667 
0.872693 0.096761 0.066667 
0.834319 0.125959 0.066667 
0.791552 0.152966 0.066667 
0.743897 0.175608 0.066667 
0.688432 0.193106 0.066667 
0.621627 0.205034 0.066667 
0.542195 0.211033 0.066667 
0.457805 0.211033 0.066667 
0.378373 0.205034 0.066667 
0.311568 0.193106 0.066667 
0.256103 0.175608 0.066667 
0.208448 0.152966 0.066667 
0.165681 0.125959 0.066667 
0.127307 0.096761 0.066667 
0.093438 0.067896 0.066667 
0.073196 0.049253 0.066667 
0.053725 0.027642 0.066667 
0.033741 -0.001176 0.066667 
0.023156 -0.019612 0.066667 
0.011963 -0.041440 0.066667 
0.000000 -0.067189 0.066667 
1.000000 -0.057189 0.100000 
0.990850 -0.004379 0.100000 
0.980958 0.040320 0.100000 
0.970376 0.077855 0.100000 
0.947360 0.135217 0.100000 
0.922228 0.175273 0.100000 
0.895405 0.205594 0.100000 
0.852785 0.244926 0.100000 
0.807865 0.278221 0.100000 
0.761190 0.304315 0.100000 
0.712765 0.322529 0.100000 
0.660448 0.334106 0.100000 
0.601555 0.340770 0.100000 
0.534880 0.343959 0.100000 
0.465120 0.343959 0.100000 
0.398445 0.340770 0.100000 
0.339552 0.334106 0.100000 
0.287235 0.322529 0.100000 
0.238810 0.304315 0.100000 
0.192135 0.278221 0.100000 
0.147215 0.244926 0.100000 
0.104595 0.205594 0.100000 
0.077772 0.175273 0.100000 
0.052640 0.135217 0.100000 
0.029624 0.077855 0.100000 
0.019042 0.040320 0.100000 
0.009150 -0.004379 0.100000 
0.000000 -0.057189 0.100000 
1.000000 -0.060522 0.100000 
0.989912 -0.016733 0.100000 
0.979586 0.020343 0.100000 
0.969004 0.051512 0.100000 
0.946999 0.099358 0.100000 
0.923753 0.133267 0.100000 
0.899124 0.159695 0.100000 
0.859421 0.195538 0.100000 
0.816683 0.227467 0.100000 
0.771310 0.253865 0.100000 
0.723143 0.273555 0.100000 
0.669776 0.287106 0.100000 
0.608246 0.295525 0.100000 
0.537318 0.299650 0.100000 
0.462682 0.299650 0.100000 
0.391754 0.295525 0.100000 
0.330224 0.287106 0.100000 
0.276857 0.273555 0.100000 
0.228690 0.253865 0.100000 
0.183317 0.227467 0.100000 
0.140579 0.195538 0.100000 
0.100876 0.159695 0.100000 
0.076247 0.133267 0.100000 
0.053001 0.099358 0.100000 
0.030996 0.051512 0.100000 
0.020414 0.020343 0.100000 
0.010088 -0.016733 0.100000 
0.000000 -0.060522 0.100000 
1.000000 -0.063856 0.100000 
0.988975 -0.029086 0.100000 
0.978215 0.000365 0.100000 
0.967632 0.025168 0.100000 
0.946637 0.063500 0.100000 
0.925278 0.091260 0.100000 
0.902843 0.113795 0.100000 
0.866057 0.146149 0.100000 
0.825501 0.176713 0.100000 
0.781431 0.203416 0.100000 
0.733520 0.224582 0.100000 
0.679104 0.240106 0.100000 
0.614937 0.250279 0.100000 
0.539756 0.255341 0.100000 
0.460244 0.255341 0.100000 
0.385063 0.250279 0.100000 
0.320896 0.240106 0.100000 
0.266480 0.224582 0.100000 
0.218569 0.203416 0.100000 
0.174499 0.176713 0.100000 
0.133943 0.146149 0.100000 
0.097157 0.113795 0.100000 
0.074722 0.091260 0.100000 
0.053363 0.063500 0.100000 
0.032368 0.025168 0.100000 
0.021785 0.000365 0.100000 
0.011025 -0.029086 0.100000 
0.000000 -0.063856 0.100000 
1.000000 -0.067189 0.100000 
0.988037 -0.041440 0.100000 
0.976844 -0.019612 0.100000 
0.966259 -0.001176 0.100000 
0.946275 0.027642 0.100000 
0.926804 0.049253 0.100000 
0.906562 0.067896 0.100000 
0.872693 0.096761 0.100000 
0.834319 0.125959 0.100000 
0.791552 0.152966 0.100000 
0.743897 0.175608 0.100000 
0.688432 0.193106 0.100000 
0.621627 0.205034 0.100000 
0.542195 0.211033 0.100000 
0.457805 0.211033 0.100000 
0.378373 0.205034 0.100000 
0.311568 0.193106 0.100000 
0.256103 0.175608 0.100000 
0.208448 0.152966 0.100000 
0.165681 0.125959 0.100000 
0.127307 0.096761 0.100000 
0.093438 0.067896 0.100000 
0.073196 0.049253 0.100000 
0.053725 0.027642 0.100000 
0.033741 -0.001176 0.100000 
0.023156 -0.019612 0.100000 
0.011963 -0.041440 0.100000 
0.000000 -0.067189 0.100000 
Zone T="FFD_vol1" I=10 J=2 K=2
DATAPACKING=POINT
1.751572 -0.896448 0.000000 
1.712901 -0.702938 0.000000 
1.650520 -0.603827 0.000000 
1.579693 -0.517575 0.000000 
1.500826 -0.415692 0.000000 
1.413633 -0.358306 0.000000 
1.318606 -0.281224 0.000000 
1.211977 -0.207754 0.000000 
1.097679 -0.160602 0.000000 
0.939999 -0.223268 0.000000 
1.742788 -0.908608 0.000000 
1.702665 -0.715920 0.000000 
1.637821 -0.618426 0.000000 
1.564255 -0.534296 0.000000 
1.482719 -0.434870 0.000000 
1.393272 -0.379965 0.000000 
1.296559 -0.305210 0.000000 
1.188927 -0.233851 0.000000 
1.074245 -0.188118 0.000000 
0.934143 -0.231375 0.000000 
1.751572 -0.896448 0.100000 
1.712901 -0.702938 0.100000 
1.650520 -0.603827 0.100000 
1.579693 -0.517575 0.100000 
1.500826 -0.415692 0.100000 
1.413633 -0.358306 0.100000 
1.318606 -0.281224 0.100000 
1.211977 -0.207754 0.100000 
1.097679 -0.160602 0.100000 
0.939999 -0.223268 0.100000 
1.742788 -0.908608 0.100000 
1.702665 -0.715920 0.100000 
1.637821 -0.618426 0.100000 
1.564255 -0.534296 0.100000 
1.482719 -0.434870 0.100000 
1.393272 -0.379965 0.100000 
1.296559 -0.305210 0.100000 
1.188927 -0.233851 0.100000 
1.074245 -0.188118 0.100000 
0.934143 -0.231375 0.100000 
Zone T="embedding_vol" I=28 J=4 K=4
DATAPACKING=POINT
1.751572 -0.896448 0.000000 
1.738954 -0.837093 0.000000 
1.726859 -0.787302 0.000000 
1.715258 -0.745976 0.000000 
1.693414 -0.684323 0.000000 
1.673179 -0.643338 0.000000 
1.654311 -0.614230 0.000000 
1.627985 -0.578062 0.000000 
1.603046 -0.545939 0.000000 
1.578353 -0.514970 0.000000 
1.552956 -0.483117 0.000000 
1.526654 -0.451754 0.000000 
1.499438 -0.423109 0.000000 
1.471302 -0.398639 0.000000 
1.442259 -0.376737 0.000000 
1.412327 -0.355024 0.000000 
1.381499 -0.331662 0.000000 
1.349660 -0.306975 0.000000 
1.316672 -0.281826 0.000000 
1.282090 -0.256929 0.000000 
1.244247 -0.232402 0.000000 
1.201174 -0.208211 0.000000 
1.167691 -0.193198 0.000000 
1.125100 -0.183969 0.000000 
1.067492 -0.186172 0.000000 
1.031210 -0.193326 0.000000 
0.988958 -0.205456 0.000000 
0.939999 -0.223268 0.000000 
1.748644 -0.900502 0.000000 
1.735867 -0.841238 0.000000 
1.723619 -0.791537 0.000000 
1.711869 -0.750302 0.000000 
1.689744 -0.688826 0.000000 
1.669246 -0.648017 0.000000 
1.650131 -0.619079 0.000000 
1.623463 -0.583160 0.000000 
1.598207 -0.551282 0.000000 
1.573211 -0.520562 0.000000 
1.547515 -0.488969 0.000000 
1.520922 -0.457875 0.000000 
1.493426 -0.429502 0.000000 
1.465024 -0.405308 0.000000 
1.435733 -0.383678 0.000000 
1.405572 -0.362235 0.000000 
1.374535 -0.339137 0.000000 
1.342511 -0.314708 0.000000 
1.309361 -0.289809 0.000000 
1.274641 -0.265156 0.000000 
1.236684 -0.240866 0.000000 
1.193514 -0.216911 0.000000 
1.160042 -0.201982 0.000000 
1.117855 -0.192395 0.000000 
1.061436 -0.193357 0.000000 
1.026165 -0.199422 0.000000 
0.985265 -0.210076 0.000000 
0.938047 -0.225971 0.000000 
1.745716 -0.904555 0.000000 
1.732780 -0.845382 0.000000 
1.720379 -0.795773 0.000000 
1.708481 -0.754627 0.000000 
1.686074 -0.693330 0.000000 
1.665312 -0.652696 0.000000 
1.645951 -0.623929 0.000000 
1.618942 -0.588258 0.000000 
1.593369 -0.556625 0.000000 
1.568069 -0.526155 0.000000 
1.542075 -0.494821 0.000000 
1.515190 -0.463996 0.000000 
1.487413 -0.435896 0.000000 
1.458746 -0.411976 0.000000 
1.429206 -0.390620 0.000000 
1.398816 -0.369445 0.000000 
1.367571 -0.346612 0.000000 
1.335362 -0.322441 0.000000 
1.302050 -0.297793 0.000000 
1.267193 -0.273382 0.000000 
1.229121 -0.249330 0.000000 
1.185855 -0.225611 0.000000 
1.152392 -0.210765 0.000000 
1.110611 -0.200821 0.000000 
1.055381 -0.200542 0.000000 
1.021119 -0.205517 0.000000 
0.981571 -0.214695 0.000000 
0.936095 -0.228673 0.000000 
1.742788 -0.908608 0.000000 
1.729694 -0.849527 0.000000 
1.717139 -0.800008 0.000000 
1.705093 -0.758953 0.000000 
1.682404 -0.697834 0.000000 
1.661379 -0.657374 0.000000 
1.641771 -0.628778 0.000000 
1.614420 -0.593356 0.000000 
1.588530 -0.561968 0.000000 
1.562927 -0.531747 0.000000 
1.536634 -0.500674 0.000000 
1.509458 -0.470116 0.000000 
1.481401 -0.442290 0.000000 
1.452468 -0.418644 0.000000 
1.422680 -0.397561 0.000000 
1.392061 -0.376656 0.000000 
1.360608 -0.354087 0.000000 
1.328212 -0.330173 0.000000 
1.294739 -0.305776 0.000000 
1.259745 -0.281608 0.000000 
1.221557 -0.257795 0.000000 
1.178195 -0.234311 0.000000 
1.144742 -0.219549 0.000000 
1.103366 -0.209246 0.000000 
1.049326 -0.207727 0.000000 
1.016074 -0.211612 0.000000 
0.977877 -0.219315 0.000000 
0.934143 -0.231375 0.000000 
1.751572 -0.896448 0.033333 
1.738954 -0.837093 0.033333 
1.726859 -0.787302 0.033333 
1.715258 -0.745976 0.033333 
1.693414 -0.684323 0.033333 
1.673179 -0.643338 0.033333 
1.654311 -0.614230 0.033333 
1.627985 -0.578062 0.033333 
1.603046 -0.545939 0.033333 
1.578353 -0.514970 0.033333 
1.552956 -0.483117 0.033333 
1.526654 -0.451754 0.033333 
1.499438 -0.423109 0.033333 
1.471302 -0.398639 0.033333 
1.442259 -0.376737 0.033333 
1.412327 -0.355024 0.033333 
1.381499 -0.331662 0.033333 
1.349660 -0.306975 0.033333 
1.316672 -0.281826 0.033333 
1.282090 -0.256929 0.033333 
1.244247 -0.232402 0.033333 
1.201174 -0.208211 0.033333 
1.167691 -0.193198 0.033333 
1.125100 -0.183969 0.033333 
1.067492 -0.186172 0.033333 
1.031210 -0.193326 0.033333 
0.988958 -0.205456 0.033333 
0.939999 -0.223268 0.033333 
1.748644 -0.900502 0.033333 
1.735867 -0.841238 0.033333 
1.723619 -0.791537 0.033333 
1.711869 -0.750302 0.033333 
1.689744 -0.688826 0.033333 
1.669246 -0.648017 0.033333 
1.650131 -0.619079 0.033333 
1.623463 -0.583160 0.033333 
1.598207 -0.551282 0.033333 
1.573211 -0.520562 0.033333 
1.547515 -0.488969 0.033333 
1.520922 -0.457875 0.033333 
1.493426 -0.429502 0.033333 
1.465024 -0.405308 0.033333 
1.435733 -0.383678 0.033333 
1.405572 -0.362235 0.033333 
1.374535 -0.339137 0.033333 
1.342511 -0.314708 0.033333 
1.309361 -0.289809 0.033333 
1.274641 -0.265156 0.033333 
1.236684 -0.240866 0.033333 
1.193514 -0.216911 0.033333 
1.160042 -0.201982 0.033333 
1.117855 -0.192395 0.033333 
1.061436 -0.193357 0.033333 
1.026165 -0.199422 0.033333 
0.985265 -0.210076 0.033333 
0.938047 -0.225971 0.033333 
1.745716 -0.904555 0.033333 
1.732780 -0.845382 0.033333 
1.720379 -0.795773 0.033333 
1.708481 -0.754627 0.033333 
1.686074 -0.693330 0.033333 
1.665312 -0.652696 0.033333 
1.645951 -0.623929 0.033333 
1.618942 -0.588258 0.033333 
1.593369 -0.556625 0.033333 
1.568069 -0.526155 0.033333 
1.542075 -0.494821 0.033333 
1.515190 -0.463996 0.033333 
1.487413 -0.435896 0.033333 
1.458746 -0.411976 0.033333 
1.429206 -0.390620 0.033333 
1.398816 -0.369445 0.033333 
1.367571 -0.346612 0.033333 
1.335362 -0.322441 0.033333 
1.302050 -0.297793 0.033333 
1.267193 -0.273382 0.033333 
1.229121 -0.249330 0.033333 
1.185855 -0.225611 0.033333 
1.152392 -0.210765 0.033333 
1.110611 -0.200821 0.033333 
1.055381 -0.200542 0.033333 
1.021119 -0.205517 0.033333 
0.981571 -0.214695 0.033333 
0.936095 -0.228673 0.033333 
1.742788 -0.908608 0.033333 
1.729694 -0.849527 0.033333 
1.717139 -0.800008 0.033333 
1.705093 -0.758953 0.033333 
1.682404 -0.697834 0.033333 
1.661379 -0.657374 0.033333 
1.641771 -0.628778 0.033333 
1.614420 -0.593356 0.033333 
1.588530 -0.561968 0.033333 
1.562927 -0.531747 0.033333 
1.536634 -0.500674 0.033333 
1.509458 -0.470116 0.033333 
1.481401 -0.442290 0.033333 
1.452468 -0.418644 0.033333 
1.422680 -0.397561 0.033333 
1.392061 -0.376656 0.033333 
1.360608 -0.354087 0.033333 
1.328212 -0.330173 0.033333 
1.294739 -0.305776 0.033333 
1.259745 -0.281608 0.033333 
1.221557 -0.257795 0.033333 
1.178195 -0.234311 0.033333 
1.144742 -0.219549 0.033333 
1.103366 -0.209246 0.033333 
1.049326 -0.207727 0.033333 
1.016074 -0.211612 0.033333 
0.977877 -0.219315 0.033333 
0.934143 -0.231375 0.033333 
1.751572 -0.896448 0.066667 
1.738954 -0.837093 0.066667 
1.726859 -0.787302 0.066667 
1.715258 -0.745976 0.066667 
1.693414 -0.684323 0.066667 
1.673179 -0.643338 0.066667 
1.654311 -0.614230 0.066667 
1.627985 -0.578062 0.066667 
1.603046 -0.545939 0.066667 
1.578353 -0.514970 0.066667 
1.552956 -0.483117 0.066667 
1.526654 -0.451754 0.066667 
1.499438 -0.423109 0.066667 
1.471302 -0.398639 0.066667 
1.442259 -0.376737 0.066667 
1.412327 -0.355024 0.066667 
1.381499 -0.331662 0.066667 
1.349660 -0.306975 0.066667 
1.316672 -0.281826 0.066667 
1.282090 -0.256929 0.066667 
1.244247 -0.232402 0.066667 
1.201174 -0.208211 0.066667 
1.167691 -0.193198 0.066667 
1.125100 -0.183969 0.066667 
1.067492 -0.186172 0.066667 
1.031210 -0.193326 0.066667 
0.988958 -0.205456 0.066667 
0.939999 -0.223268 0.066667 
1.748644 -0.900502 0.066667 
1.735867 -0.841238 0.066667 
1.723619 -0.791537 0.066667 
1.711869 -0.750302 0.066667 
1.689744 -0.688826 0.066667 
1.669246 -0.648017 0.066667 
1.650131 -0.619079 0.066667 
1.623463 -0.583160 0.066667 
1.598207 -0.551282 0.066667 
1.573211 -0.520562 0.066667 
1.547515 -0.488969 0.066667 
1.520922 -0.457875 0.066667 
1.493426 -0.429502 0.066667 
1.465024 -0.405308 0.066667 
1.435733 -0.383678 0.066667 
1.405572 -0.362235 0.066667 
1.374535 -0.339137 0.066667 
1.342511 -0.314708 0.066667 
1.309361 -0.289809 0.066667 
1.274641 -0.265156 0.066667 
1.236684 -0.240866 0.066667 
1.193514 -0.216911 0.066667 
1.160042 -0.201982 0.066667 
1.117855 -0.192395 0.066667 
1.061436 -0.193357 0.066667 
1.026165 -0.199422 0.066667 
0.985265 -0.210076 0.066667 
0.938047 -0.225971 0.066667 
1.745716 -0.904555 0.066667 
1.732780 -0.845382 0.066667 
1.720379 -0.795773 0.066667 
1.708481 -0.754627 0.066667 
1.686074 -0.693330 0.066667 
1.665312 -0.652696 0.066667 
1.645951 -0.623929 0.066667 
1.618942 -0.588258 0.066667 
1.593369 -0.556625 0.066667 
1.568069 -0.526155 0.066667 
1.542075 -0.494821 0.066667 
1.515190 -0.463996 0.066667 
1.487413 -0.435896 0.066667 
1.458746 -0.411976 0.066667 
1.429206 -0.390620 0.066667 
1.398816 -0.369445 0.066667 
1.367571 -0.346612 0.066667 
1.335362 -0.322441 0.066667 
1.302050 -0.297793 0.066667 
1.267193 -0.273382 0.066667 
1.229121 -0.249330 0.066667 
1.185855 -0.225611 0.066667 
1.152392 -0.210765 0.066667 
1.110611 -0.200821 0.066667 
1.055381 -0.200542 0.066667 
1.021119 -0.205517 0.066667 
0.981571 -0.214695 0.066667 
0.936095 -0.228673 0.066667 
1.742788 -0.908608 0.066667 
1.729694 -0.849527 0.066667 
1.717139 -0.800008 0.066667 
1.705093 -0.758953 0.066667 
1.682404 -0.697834 0.066667 
1.661379 -0.657374 0.066667 
1.641771 -0.628778 0.066667 
1.614420 -0.593356 0.066667 
1.588530 -0.561968 0.066667 
1.562927 -0.531747 0.066667 
1.536634 -0.500674 0.066667 
1.509458 -0.470116 0.066667 
1.481401 -0.442290 0.066667 
1.452468 -0.418644 0.066667 
1.422680 -0.397561 0.066667 
1.392061 -0.376656 0.066667 
1.360608 -0.354087 0.066667 
1.328212 -0.330173 0.066667 
1.294739 -0.305776 0.066667 
1.259745 -0.281608 0.066667 
1.221557 -0.257795 0.066667 
1.178195 -0.234311 0.066667 
1.144742 -0.219549 0.066667 
1.103366 -0.209246 0.066667 
1.049326 -0.207727 0.066667 
1.016074 -0.211612 0.066667 
0.977877 -0.219315 0.066667 
0.934143 -0.231375 0.066667 
1.751572 -0.896448 0.100000 
1.738954 -0.837093 0.100000 
1.726859 -0.787302 0.100000 
1.715258 -0.745976 0.100000 
1.693414 -0.684323 0.100000 
1.673179 -0.643338 0.100000 
1.654311 -0.614230 0.100000 
1.627985 -0.578062 0.100000 
1.603046 -0.545939 0.100000 
1.578353 -0.514970 0.100000 
1.552956 -0.483117 0.100000 
1.526654 -0.451754 0.100000 
1.499438 -0.423109 0.100000 
1.471302 -0.398639 0.100000 
1.442259 -0.376737 0.100000 
1.412327 -0.355024 0.100000 
1.381499 -0.331662 0.100000 
1.349660 -0.306975 0.100000 
1.316672 -0.281826 0.100000 
1.282090 -0.256929 0.100000 
1.244247 -0.232402 0.100000 
1.201174 -0.208211 0.100000 
1.167691 -0.193198 0.100000 
1.125100 -0.183969 0.100000 
1.067492 -0.186172 0.100000 
1.031210 -0.193326 0.100000 
0.988958 -0.205456 0.100000 
0.939999 -0.223268 0.100000 
1.748644 -0.900502 0.100000 
1.735867 -0.841238 0.100000 
1.723619 -0.791537 0.100000 
1.711869 -0.750302 0.100000 
1.689744 -0.688826 0.100000 
1.669246 -0.648017 0.100000 
1.650131 -0.619079 0.100000 
1.623463 -0.583160 0.100000 
1.598207 -0.551282 0.100000 
1.573211 -0.520562 0.100000 
1.547515 -0.488969 0.100000 
1.520922 -0.457875 0.100000 
1.493426 -0.429502 0.100000 
1.465024 -0.405308 0.100000 
1.435733 -0.383678 0.100000 
1.405572 -0.362235 0.100000 
1.374535 -0.339137 0.100000 
1.342511 -0.314708 0.100000 
1.309361 -0.289809 0.100000 
1.274641 -0.265156 0.100000 
1.236684 -0.240866 0.100000 
1.193514 -0.216911 0.100000 
1.160042 -0.201982 0.100000 
1.117855 -0.192395 0.100000 
1.061436 -0.193357 0.100000 
1.026165 -0.199422 0.100000 
0.985265 -0.210076 0.100000 
0.938047 -0.225971 0.100000 
1.745716 -0.904555 0.100000 
1.732780 -0.845382 0.100000 
1.720379 -0.795773 0.100000 
1.708481 -0.754627 0.100000 
1.686074 -0.693330 0.100000 
1.665312 -0.652696 0.100000 
1.645951 -0.623929 0.100000 
1.618942 -0.588258 0.100000 
1.593369 -0.556625 0.100000 
1.568069 -0.526155 0.100000 
1.542075 -0.494821 0.100000 
1.515190 -0.463996 0.100000 
1.487413 -0.435896 0.100000 
1.458746 -0.411976 0.100000 
1.429206 -0.390620 0.100000 
1.398816 -0.369445 0.100000 
1.367571 -0.346612 0.100000 
1.335362 -0.322441 0.100000 
1.302050 -0.297793 0.100000 
1.267193 -0.273382 0.100000 
1.229121 -0.249330 0.100000 
1.185855 -0.225611 0.100000 
1.152392 -0.210765 0.100000 
1.110611 -0.200821 0.100000 
1.055381 -0.200542 0.100000 
1.021119 -0.205517 0.100000 
0.981571 -0.214695 0.100000 
0.936095 -0.228673 0.100000 
1.742788 -0.908608 0.100000 
1.729694 -0.849527 0.100000 
1.717139 -0.800008 0.100000 
1.705093 -0.758953 0.100000 
1.682404 -0.697834 0.100000 
1.661379 -0.657374 0.100000 
1.641771 -0.628778 0.100000 
1.614420 -0.593356 0.100000 
1.588530 -0.561968 0.100000 
1.562927 -0.531747 0.100000 
1.536634 -0.500674 0.100000 
1.509458 -0.470116 0.100000 
1.481401 -0.442290 0.100000 
1.452468 -0.418644 0.100000 
1.422680 -0.397561 0.100000 
1.392061 -0.376656 0.100000 
1.360608 -0.354087 0.100000 
1.328212 -0.330173 0.100000 
1.294739 -0.305776 0.100000 
1.259745 -0.281608 0.100000 
1.221557 -0.257795 0.100000 
1.178195 -0.234311 0.100000 
1.144742 -0.219549 0.100000 
1.103366 -0.209246 0.100000 
1.049326 -0.207727 0.100000 
1.016074 -0.211612 0.100000 
0.977877 -0.219315 0.100000 
0.934143 -0.231375 0.100000 
