VARIABLES = "CoordinateX", "CoordinateY", "CoordinateZ"
Zone T="FFD_vol0" I=10 J=2 K=2
DATAPACKING=POINT
1.010000 0.004083 0.000000 
0.973716 0.088077 0.000000 
0.899672 0.199873 0.000000 
0.763006 0.295232 0.000000 
0.615441 0.317202 0.000000 
0.384559 0.318653 0.000000 
0.236994 0.296256 0.000000 
0.100328 0.190186 0.000000 
0.026284 0.086486 0.000000 
-0.010000 0.016507 0.000000 
1.010000 -0.028825 0.000000 
0.962798 -0.005368 0.000000 
0.913486 0.040078 0.000000 
0.797974 0.138919 0.000000 
0.643930 0.209190 0.000000 
0.356070 0.200758 0.000000 
0.202026 0.133335 0.000000 
0.086514 0.033041 0.000000 
0.037202 -0.021024 0.000000 
-0.010000 -0.030948 0.000000 
1.010000 0.008461 0.100000 
0.973716 0.080782 0.100000 
0.899672 0.188347 0.100000 
0.763006 0.285796 0.100000 
0.615441 0.332277 0.100000 
0.384559 0.331808 0.100000 
0.236994 0.289209 0.100000 
0.100328 0.184230 0.100000 
0.026284 0.088155 0.100000 
-0.010000 0.021464 0.100000 
1.010000 -0.019619 0.100000 
0.962798 -0.003172 0.100000 
0.913486 0.030467 0.100000 
0.797974 0.130111 0.100000 
0.643930 0.215892 0.100000 
0.356070 0.213913 0.100000 
0.202026 0.126287 0.100000 
0.086514 0.027085 0.100000 
0.037202 -0.019354 0.100000 
-0.010000 -0.025990 0.100000 
Zone T="embedding_vol" I=28 J=4 K=4
DATAPACKING=POINT
1.010000 0.004083 0.000000 
0.997873 0.031062 0.000000 
0.985663 0.056093 0.000000 
0.973339 0.079306 0.000000 
0.948238 0.120809 0.000000 
0.922338 0.156627 0.000000 
0.895405 0.187817 0.000000 
0.852785 0.227634 0.000000 
0.807865 0.259375 0.000000 
0.761190 0.283000 0.000000 
0.712765 0.298804 0.000000 
0.660448 0.308412 0.000000 
0.601555 0.313782 0.000000 
0.534880 0.316525 0.000000 
0.465120 0.316865 0.000000 
0.398445 0.314678 0.000000 
0.339552 0.309493 0.000000 
0.287235 0.299443 0.000000 
0.238810 0.282311 0.000000 
0.192135 0.256462 0.000000 
0.147215 0.222583 0.000000 
0.104595 0.181940 0.000000 
0.077662 0.151540 0.000000 
0.051762 0.118047 0.000000 
0.026661 0.080809 0.000000 
0.014337 0.060582 0.000000 
0.002127 0.039175 0.000000 
-0.010000 0.016507 0.000000 
1.010000 -0.006886 0.000000 
0.996936 0.013700 0.000000 
0.984291 0.032985 0.000000 
0.971967 0.051072 0.000000 
0.947877 0.084070 0.000000 
0.923863 0.113527 0.000000 
0.899124 0.140275 0.000000 
0.859421 0.176544 0.000000 
0.816683 0.207833 0.000000 
0.771310 0.233386 0.000000 
0.723143 0.252685 0.000000 
0.669776 0.266176 0.000000 
0.608246 0.274545 0.000000 
0.537318 0.278393 0.000000 
0.462682 0.277966 0.000000 
0.391754 0.273427 0.000000 
0.330224 0.264718 0.000000 
0.276857 0.250902 0.000000 
0.228690 0.230826 0.000000 
0.183317 0.203775 0.000000 
0.140579 0.170795 0.000000 
0.100876 0.133373 0.000000 
0.076137 0.106598 0.000000 
0.052123 0.078381 0.000000 
0.028033 0.048594 0.000000 
0.015709 0.033072 0.000000 
0.003064 0.017108 0.000000 
-0.010000 0.000688 0.000000 
1.010000 -0.017855 0.000000 
0.995998 -0.003662 0.000000 
0.982920 0.009877 0.000000 
0.970595 0.022838 0.000000 
0.947515 0.047331 0.000000 
0.925388 0.070427 0.000000 
0.902843 0.092732 0.000000 
0.866057 0.125454 0.000000 
0.825501 0.156292 0.000000 
0.781431 0.183772 0.000000 
0.733520 0.206565 0.000000 
0.679104 0.223940 0.000000 
0.614937 0.235309 0.000000 
0.539756 0.240260 0.000000 
0.460244 0.239068 0.000000 
0.385063 0.232177 0.000000 
0.320896 0.219943 0.000000 
0.266480 0.202362 0.000000 
0.218569 0.179341 0.000000 
0.174499 0.151087 0.000000 
0.133943 0.119006 0.000000 
0.097157 0.084807 0.000000 
0.074612 0.061655 0.000000 
0.052485 0.038715 0.000000 
0.029405 0.016379 0.000000 
0.017080 0.005561 0.000000 
0.004002 -0.004959 0.000000 
-0.010000 -0.015130 0.000000 
1.010000 -0.028825 0.000000 
0.995061 -0.021025 0.000000 
0.981549 -0.013231 0.000000 
0.969222 -0.005396 0.000000 
0.947153 0.010593 0.000000 
0.926913 0.027327 0.000000 
0.906562 0.045190 0.000000 
0.872693 0.074363 0.000000 
0.834319 0.104751 0.000000 
0.791552 0.134157 0.000000 
0.743897 0.160446 0.000000 
0.688432 0.181703 0.000000 
0.621627 0.196073 0.000000 
0.542195 0.202128 0.000000 
0.457805 0.200169 0.000000 
0.378373 0.190926 0.000000 
0.311568 0.175167 0.000000 
0.256103 0.153822 0.000000 
0.208448 0.127856 0.000000 
0.165681 0.098399 0.000000 
0.127307 0.067218 0.000000 
0.093438 0.036241 0.000000 
0.073087 0.016713 0.000000 
0.052847 -0.000951 0.000000 
0.030778 -0.015836 0.000000 
0.018451 -0.021950 0.000000 
0.004939 -0.027025 0.000000 
-0.010000 -0.030948 0.000000 
1.010000 0.005542 0.033333 
0.997873 0.031339 0.033333 
0.985663 0.055400 0.033333 
0.973339 0.077835 0.033333 
0.948238 0.118267 0.033333 
0.922338 0.153511 0.033333 
0.895405 0.184444 0.033333 
0.852785 0.224209 0.033333 
0.807865 0.256384 0.033333 
0.761190 0.281101 0.033333 
0.712765 0.298697 0.033333 
0.660448 0.310325 0.033333 
0.601555 0.317339 0.033333 
0.534880 0.320864 0.033333 
0.465120 0.321108 0.033333 
0.398445 0.318048 0.033333 
0.339552 0.311376 0.033333 
0.287235 0.299651 0.033333 
0.238810 0.281145 0.033333 
0.192135 0.254606 0.033333 
0.147215 0.220691 0.033333 
0.104595 0.180529 0.033333 
0.077662 0.150671 0.033333 
0.051762 0.117840 0.033333 
0.026661 0.081335 0.033333 
0.014337 0.061486 0.033333 
0.002127 0.040457 0.033333 
-0.010000 0.018159 0.033333 
1.010000 -0.004891 0.033333 
0.996936 0.014652 0.033333 
0.984291 0.033047 0.033333 
0.971967 0.050385 0.033333 
0.947877 0.082252 0.033333 
0.923863 0.110981 0.033333 
0.899124 0.137301 0.033333 
0.859421 0.173334 0.033333 
0.816683 0.204924 0.033333 
0.771310 0.231413 0.033333 
0.723143 0.252284 0.033333 
0.669776 0.267582 0.033333 
0.608246 0.277494 0.033333 
0.537318 0.282201 0.033333 
0.462682 0.281865 0.033333 
0.391754 0.276642 0.033333 
0.330224 0.266555 0.033333 
0.276857 0.251105 0.033333 
0.228690 0.229660 0.033333 
0.183317 0.201918 0.033333 
0.140579 0.168902 0.033333 
0.100876 0.131963 0.033333 
0.076137 0.105728 0.033333 
0.052123 0.078173 0.033333 
0.028033 0.049120 0.033333 
0.015709 0.033976 0.033333 
0.003064 0.018390 0.033333 
-0.010000 0.002341 0.033333 
1.010000 -0.015323 0.033333 
0.995998 -0.002034 0.033333 
0.982920 0.010694 0.033333 
0.970595 0.022934 0.033333 
0.947515 0.046237 0.033333 
0.925388 0.068452 0.033333 
0.902843 0.090158 0.033333 
0.866057 0.122459 0.033333 
0.825501 0.153465 0.033333 
0.781431 0.181726 0.033333 
0.733520 0.205870 0.033333 
0.679104 0.224838 0.033333 
0.614937 0.237649 0.033333 
0.539756 0.243538 0.033333 
0.460244 0.242623 0.033333 
0.385063 0.235236 0.033333 
0.320896 0.221734 0.033333 
0.266480 0.202559 0.033333 
0.218569 0.178175 0.033333 
0.174499 0.149231 0.033333 
0.133943 0.117114 0.033333 
0.097157 0.083396 0.033333 
0.074612 0.060786 0.033333 
0.052485 0.038507 0.033333 
0.029405 0.016905 0.033333 
0.017080 0.006465 0.033333 
0.004002 -0.003677 0.033333 
-0.010000 -0.013477 0.033333 
1.010000 -0.025756 0.033333 
0.995061 -0.018721 0.033333 
0.981549 -0.011659 0.033333 
0.969222 -0.004517 0.033333 
0.947153 0.010222 0.033333 
0.926913 0.025923 0.033333 
0.906562 0.043015 0.033333 
0.872693 0.071584 0.033333 
0.834319 0.102006 0.033333 
0.791552 0.132039 0.033333 
0.743897 0.159457 0.033333 
0.688432 0.182095 0.033333 
0.621627 0.197804 0.033333 
0.542195 0.204875 0.033333 
0.457805 0.203380 0.033333 
0.378373 0.193830 0.033333 
0.311568 0.176913 0.033333 
0.256103 0.154013 0.033333 
0.208448 0.126690 0.033333 
0.165681 0.096543 0.033333 
0.127307 0.065325 0.033333 
0.093438 0.034830 0.033333 
0.073087 0.015843 0.033333 
0.052847 -0.001159 0.033333 
0.030778 -0.015310 0.033333 
0.018451 -0.021046 0.033333 
0.004939 -0.025744 0.033333 
-0.010000 -0.029295 0.033333 
1.010000 0.007002 0.066667 
0.997873 0.031616 0.066667 
0.985663 0.054708 0.066667 
0.973339 0.076365 0.066667 
0.948238 0.115725 0.066667 
0.922338 0.150394 0.066667 
0.895405 0.181071 0.066667 
0.852785 0.220785 0.066667 
0.807865 0.253393 0.066667 
0.761190 0.279201 0.066667 
0.712765 0.298590 0.066667 
0.660448 0.312238 0.066667 
0.601555 0.320895 0.066667 
0.534880 0.325203 0.066667 
0.465120 0.325351 0.066667 
0.398445 0.321417 0.066667 
0.339552 0.313259 0.066667 
0.287235 0.299859 0.066667 
0.238810 0.279978 0.066667 
0.192135 0.252750 0.066667 
0.147215 0.218798 0.066667 
0.104595 0.179119 0.066667 
0.077662 0.149801 0.066667 
0.051762 0.117632 0.066667 
0.026661 0.081861 0.066667 
0.014337 0.062390 0.066667 
0.002127 0.041739 0.066667 
-0.010000 0.019812 0.066667 
1.010000 -0.002895 0.066667 
0.996936 0.015605 0.066667 
0.984291 0.033110 0.066667 
0.971967 0.049698 0.066667 
0.947877 0.080434 0.066667 
0.923863 0.108436 0.066667 
0.899124 0.134327 0.066667 
0.859421 0.170125 0.066667 
0.816683 0.202015 0.066667 
0.771310 0.229440 0.066667 
0.723143 0.251883 0.066667 
0.669776 0.268987 0.066667 
0.608246 0.280442 0.066667 
0.537318 0.286010 0.066667 
0.462682 0.285764 0.066667 
0.391754 0.279856 0.066667 
0.330224 0.268392 0.066667 
0.276857 0.251308 0.066667 
0.228690 0.228494 0.066667 
0.183317 0.200062 0.066667 
0.140579 0.167010 0.066667 
0.100876 0.130552 0.066667 
0.076137 0.104859 0.066667 
0.052123 0.077966 0.066667 
0.028033 0.049646 0.066667 
0.015709 0.034880 0.066667 
0.003064 0.019672 0.066667 
-0.010000 0.003994 0.066667 
1.010000 -0.012791 0.066667 
0.995998 -0.000406 0.066667 
0.982920 0.011512 0.066667 
0.970595 0.023030 0.066667 
0.947515 0.045142 0.066667 
0.925388 0.066477 0.066667 
0.902843 0.087583 0.066667 
0.866057 0.119465 0.066667 
0.825501 0.150638 0.066667 
0.781431 0.179680 0.066667 
0.733520 0.205175 0.066667 
0.679104 0.225737 0.066667 
0.614937 0.239988 0.066667 
0.539756 0.246816 0.066667 
0.460244 0.246177 0.066667 
0.385063 0.238295 0.066667 
0.320896 0.223525 0.066667 
0.266480 0.202756 0.066667 
0.218569 0.177009 0.066667 
0.174499 0.147374 0.066667 
0.133943 0.115221 0.066667 
0.097157 0.081986 0.066667 
0.074612 0.059916 0.066667 
0.052485 0.038300 0.066667 
0.029405 0.017431 0.066667 
0.017080 0.007369 0.066667 
0.004002 -0.002395 0.066667 
-0.010000 -0.011825 0.066667 
1.010000 -0.022687 0.066667 
0.995061 -0.016416 0.066667 
0.981549 -0.010086 0.066667 
0.969222 -0.003637 0.066667 
0.947153 0.009851 0.066667 
0.926913 0.024519 0.066667 
0.906562 0.040840 0.066667 
0.872693 0.068805 0.066667 
0.834319 0.099261 0.066667 
0.791552 0.129920 0.066667 
0.743897 0.158468 0.066667 
0.688432 0.182487 0.066667 
0.621627 0.199534 0.066667 
0.542195 0.207623 0.066667 
0.457805 0.206591 0.066667 
0.378373 0.196734 0.066667 
0.311568 0.178658 0.066667 
0.256103 0.154204 0.066667 
0.208448 0.125524 0.066667 
0.165681 0.094687 0.066667 
0.127307 0.063432 0.066667 
0.093438 0.033420 0.066667 
0.073087 0.014974 0.066667 
0.052847 -0.001367 0.066667 
0.030778 -0.014784 0.066667 
0.018451 -0.020142 0.066667 
0.004939 -0.024462 0.066667 
-0.010000 -0.027643 0.066667 
1.010000 0.008461 0.100000 
0.997873 0.031892 0.100000 
0.985663 0.054015 0.100000 
0.973339 0.074895 0.100000 
0.948238 0.113183 0.100000 
0.922338 0.147278 0.100000 
0.895405 0.177697 0.100000 
0.852785 0.217360 0.100000 
0.807865 0.250402 0.100000 
0.761190 0.277301 0.100000 
0.712765 0.298483 0.100000 
0.660448 0.314150 0.100000 
0.601555 0.324452 0.100000 
0.534880 0.329542 0.100000 
0.465120 0.329594 0.100000 
0.398445 0.324786 0.100000 
0.339552 0.315143 0.100000 
0.287235 0.300068 0.100000 
0.238810 0.278812 0.100000 
0.192135 0.250894 0.100000 
0.147215 0.216906 0.100000 
0.104595 0.177708 0.100000 
0.077662 0.148932 0.100000 
0.051762 0.117424 0.100000 
0.026661 0.082387 0.100000 
0.014337 0.063295 0.100000 
0.002127 0.043020 0.100000 
-0.010000 0.021464 0.100000 
1.010000 -0.000899 0.100000 
0.996936 0.016557 0.100000 
0.984291 0.033172 0.100000 
0.971967 0.049010 0.100000 
0.947877 0.078615 0.100000 
0.923863 0.105890 0.100000 
0.899124 0.131353 0.100000 
0.859421 0.166915 0.100000 
0.816683 0.199106 0.100000 
0.771310 0.227468 0.100000 
0.723143 0.251481 0.100000 
0.669776 0.270393 0.100000 
0.608246 0.283390 0.100000 
0.537318 0.289818 0.100000 
0.462682 0.289663 0.100000 
0.391754 0.283070 0.100000 
0.330224 0.270230 0.100000 
0.276857 0.251510 0.100000 
0.228690 0.227327 0.100000 
0.183317 0.198206 0.100000 
0.140579 0.165117 0.100000 
0.100876 0.129142 0.100000 
0.076137 0.103989 0.100000 
0.052123 0.077758 0.100000 
0.028033 0.050172 0.100000 
0.015709 0.035784 0.100000 
0.003064 0.020954 0.100000 
-0.010000 0.005646 0.100000 
1.010000 -0.010259 0.100000 
0.995998 0.001223 0.100000 
0.982920 0.012330 0.100000 
0.970595 0.023126 0.100000 
0.947515 0.044047 0.100000 
0.925388 0.064503 0.100000 
0.902843 0.085009 0.100000 
0.866057 0.116470 0.100000 
0.825501 0.147811 0.100000 
0.781431 0.177634 0.100000 
0.733520 0.204480 0.100000 
0.679104 0.226636 0.100000 
0.614937 0.242328 0.100000 
0.539756 0.250094 0.100000 
0.460244 0.249732 0.100000 
0.385063 0.241354 0.100000 
0.320896 0.225316 0.100000 
0.266480 0.202953 0.100000 
0.218569 0.175843 0.100000 
0.174499 0.145518 0.100000 
0.133943 0.113328 0.100000 
0.097157 0.080575 0.100000 
0.074612 0.059047 0.100000 
0.052485 0.038092 0.100000 
0.029405 0.017957 0.100000 
0.017080 0.008273 0.100000 
0.004002 -0.001113 0.100000 
-0.010000 -0.010172 0.100000 
1.010000 -0.019619 0.100000 
0.995061 -0.014112 0.100000 
0.981549 -0.008513 0.100000 
0.969222 -0.002758 0.100000 
0.947153 0.009479 0.100000 
0.926913 0.023115 0.100000 
0.906562 0.038665 0.100000 
0.872693 0.066025 0.100000 
0.834319 0.096516 0.100000 
0.791552 0.127801 0.100000 
0.743897 0.157478 0.100000 
0.688432 0.182879 0.100000 
0.621627 0.201265 0.100000 
0.542195 0.210370 0.100000 
0.457805 0.209801 0.100000 
0.378373 0.199638 0.100000 
0.311568 0.180403 0.100000 
0.256103 0.154395 0.100000 
0.208448 0.124358 0.100000 
0.165681 0.092831 0.100000 
0.127307 0.061540 0.100000 
0.093438 0.032009 0.100000 
0.073087 0.014104 0.100000 
0.052847 -0.001574 0.100000 
0.030778 -0.014258 0.100000 
0.018451 -0.019237 0.100000 
0.004939 -0.023180 0.100000 
-0.010000 -0.025990 0.100000 
Zone T="FFD_vol1" I=10 J=2 K=2
DATAPACKING=POINT
1.887776 -0.690118 0.000000 
1.847172 -0.568134 0.000000 
1.783360 -0.482188 0.000000 
1.711205 -0.386119 0.000000 
1.630986 -0.303535 0.000000 
1.542795 -0.224131 0.000000 
1.446648 -0.147729 0.000000 
1.339210 -0.109260 0.000000 
1.224353 -0.045967 0.000000 
1.067150 -0.073674 0.000000 
1.879173 -0.704820 0.000000 
1.837129 -0.579205 0.000000 
1.770877 -0.494197 0.000000 
1.696015 -0.399533 0.000000 
1.613164 -0.318542 0.000000 
1.522756 -0.234346 0.000000 
1.424957 -0.173646 0.000000 
1.316548 -0.135341 0.000000 
1.201327 -0.092834 0.000000 
1.061415 -0.112902 0.000000 
1.887776 -0.667748 0.100000 
1.847172 -0.578849 0.100000 
1.783360 -0.485029 0.100000 
1.711205 -0.390230 0.100000 
1.630986 -0.304964 0.100000 
1.542795 -0.223205 0.100000 
1.446648 -0.152681 0.100000 
1.339210 -0.108144 0.100000 
1.224353 -0.066087 0.100000 
1.067150 -0.073314 0.100000 
1.879173 -0.682449 0.100000 
1.837129 -0.589920 0.100000 
1.770877 -0.497039 0.100000 
1.696015 -0.403644 0.100000 
1.613164 -0.319971 0.100000 
1.522756 -0.241793 0.100000 
1.424957 -0.177970 0.100000 
1.316548 -0.132310 0.100000 
1.201327 -0.103462 0.100000 
1.061415 -0.107715 0.100000 
Zone T="embedding_vol" I=28 J=4 K=4
DATAPACKING=POINT
1.887776 -0.690118 0.000000 
1.874557 -0.652282 0.000000 
1.861943 -0.619694 0.000000 
1.849895 -0.591748 0.000000 
1.827338 -0.547361 0.000000 
1.806574 -0.514280 0.000000 
1.787287 -0.487663 0.000000 
1.760422 -0.451870 0.000000 
1.735004 -0.419011 0.000000 
1.709861 -0.388366 0.000000 
1.684018 -0.359277 0.000000 
1.657282 -0.331303 0.000000 
1.629657 -0.304065 0.000000 
1.601146 -0.277243 0.000000 
1.571750 -0.250767 0.000000 
1.541469 -0.224632 0.000000 
1.510284 -0.199046 0.000000 
1.478090 -0.175088 0.000000 
1.444766 -0.154051 0.000000 
1.409878 -0.136431 0.000000 
1.371751 -0.119528 0.000000 
1.328402 -0.099848 0.000000 
1.294744 -0.084385 0.000000 
1.252026 -0.070662 0.000000 
1.194390 -0.063205 0.000000 
1.158147 -0.063241 0.000000 
1.115977 -0.066542 0.000000 
1.067150 -0.073674 0.000000 
1.884909 -0.695019 0.000000 
1.871532 -0.656828 0.000000 
1.858766 -0.623975 0.000000 
1.846571 -0.595843 0.000000 
1.823735 -0.551275 0.000000 
1.802710 -0.518194 0.000000 
1.783179 -0.491666 0.000000 
1.755976 -0.456030 0.000000 
1.730244 -0.423329 0.000000 
1.704802 -0.392848 0.000000 
1.678664 -0.363915 0.000000 
1.651641 -0.336024 0.000000 
1.623740 -0.308713 0.000000 
1.594967 -0.281650 0.000000 
1.565327 -0.255029 0.000000 
1.534821 -0.229175 0.000000 
1.503431 -0.204501 0.000000 
1.471056 -0.181769 0.000000 
1.437574 -0.161827 0.000000 
1.402552 -0.144896 0.000000 
1.364313 -0.128682 0.000000 
1.320872 -0.110265 0.000000 
1.287225 -0.096133 0.000000 
1.244907 -0.083742 0.000000 
1.188441 -0.077110 0.000000 
1.153192 -0.077209 0.000000 
1.112352 -0.080255 0.000000 
1.065238 -0.086750 0.000000 
1.882041 -0.699919 0.000000 
1.868507 -0.661374 0.000000 
1.855589 -0.628256 0.000000 
1.843247 -0.599938 0.000000 
1.820132 -0.555190 0.000000 
1.798846 -0.522107 0.000000 
1.779071 -0.495669 0.000000 
1.751530 -0.460190 0.000000 
1.725485 -0.427647 0.000000 
1.699743 -0.397330 0.000000 
1.673311 -0.368553 0.000000 
1.646000 -0.340745 0.000000 
1.617822 -0.313360 0.000000 
1.588788 -0.286056 0.000000 
1.558904 -0.259290 0.000000 
1.528173 -0.233718 0.000000 
1.496579 -0.209956 0.000000 
1.464022 -0.188450 0.000000 
1.430381 -0.169603 0.000000 
1.395225 -0.153361 0.000000 
1.356875 -0.137836 0.000000 
1.313342 -0.120682 0.000000 
1.279706 -0.107881 0.000000 
1.237787 -0.096823 0.000000 
1.182492 -0.091015 0.000000 
1.148237 -0.091177 0.000000 
1.108727 -0.093968 0.000000 
1.063326 -0.099826 0.000000 
1.879173 -0.704820 0.000000 
1.865482 -0.665920 0.000000 
1.852412 -0.632537 0.000000 
1.839923 -0.604033 0.000000 
1.816529 -0.559104 0.000000 
1.794982 -0.526021 0.000000 
1.774963 -0.499672 0.000000 
1.747085 -0.464349 0.000000 
1.720726 -0.431966 0.000000 
1.694684 -0.401812 0.000000 
1.667957 -0.373192 0.000000 
1.640359 -0.345465 0.000000 
1.611905 -0.318008 0.000000 
1.582609 -0.290463 0.000000 
1.552480 -0.263552 0.000000 
1.521524 -0.238262 0.000000 
1.489726 -0.215411 0.000000 
1.456987 -0.195130 0.000000 
1.423189 -0.177378 0.000000 
1.387899 -0.161826 0.000000 
1.349438 -0.146990 0.000000 
1.305811 -0.131098 0.000000 
1.272186 -0.119629 0.000000 
1.230668 -0.109903 0.000000 
1.176544 -0.104920 0.000000 
1.143282 -0.105145 0.000000 
1.105102 -0.107681 0.000000 
1.061415 -0.112902 0.000000 
1.887776 -0.682661 0.033333 
1.874557 -0.648062 0.033333 
1.861943 -0.617904 0.033333 
1.849895 -0.591690 0.033333 
1.827338 -0.549099 0.033333 
1.806574 -0.516308 0.033333 
1.787287 -0.489337 0.033333 
1.760422 -0.453166 0.033333 
1.735004 -0.420202 0.033333 
1.709861 -0.389517 0.033333 
1.684018 -0.360284 0.033333 
1.657282 -0.332075 0.033333 
1.629657 -0.304560 0.033333 
1.601146 -0.277480 0.033333 
1.571750 -0.250856 0.033333 
1.541469 -0.224780 0.033333 
1.510284 -0.199502 0.033333 
1.478090 -0.175906 0.033333 
1.444766 -0.155038 0.033333 
1.409878 -0.137289 0.033333 
1.371751 -0.120430 0.033333 
1.328402 -0.101583 0.033333 
1.294744 -0.087250 0.033333 
1.252026 -0.074460 0.033333 
1.194390 -0.066918 0.033333 
1.158147 -0.066273 0.033333 
1.115977 -0.068331 0.033333 
1.067150 -0.073554 0.033333 
1.884909 -0.687562 0.033333 
1.871532 -0.652608 0.033333 
1.858766 -0.622186 0.033333 
1.846571 -0.595785 0.033333 
1.823735 -0.553013 0.033333 
1.802710 -0.520222 0.033333 
1.783179 -0.493340 0.033333 
1.755976 -0.457325 0.033333 
1.730244 -0.424520 0.033333 
1.704802 -0.393999 0.033333 
1.678664 -0.364929 0.033333 
1.651641 -0.336841 0.033333 
1.623740 -0.309362 0.033333 
1.594967 -0.282231 0.033333 
1.565327 -0.255648 0.033333 
1.534821 -0.229932 0.033333 
1.503431 -0.205464 0.033333 
1.471056 -0.182881 0.033333 
1.437574 -0.162887 0.033333 
1.402552 -0.145672 0.033333 
1.364313 -0.129369 0.033333 
1.320872 -0.111600 0.033333 
1.287225 -0.098427 0.033333 
1.244907 -0.086817 0.033333 
1.188441 -0.080040 0.033333 
1.153192 -0.079486 0.033333 
1.112352 -0.081368 0.033333 
1.065238 -0.086094 0.033333 
1.882041 -0.692462 0.033333 
1.868507 -0.657154 0.033333 
1.855589 -0.626467 0.033333 
1.843247 -0.599880 0.033333 
1.820132 -0.556928 0.033333 
1.798846 -0.524136 0.033333 
1.779071 -0.497343 0.033333 
1.751530 -0.461485 0.033333 
1.725485 -0.428839 0.033333 
1.699743 -0.398481 0.033333 
1.673311 -0.369573 0.033333 
1.646000 -0.341608 0.033333 
1.617822 -0.314165 0.033333 
1.588788 -0.286982 0.033333 
1.558904 -0.260441 0.033333 
1.528173 -0.235084 0.033333 
1.496579 -0.211425 0.033333 
1.464022 -0.189855 0.033333 
1.430381 -0.170736 0.033333 
1.395225 -0.154055 0.033333 
1.356875 -0.138308 0.033333 
1.313342 -0.121618 0.033333 
1.279706 -0.109605 0.033333 
1.237787 -0.099174 0.033333 
1.182492 -0.093162 0.033333 
1.148237 -0.092699 0.033333 
1.108727 -0.094405 0.033333 
1.063326 -0.098633 0.033333 
1.879173 -0.697363 0.033333 
1.865482 -0.661700 0.033333 
1.852412 -0.630748 0.033333 
1.839923 -0.603975 0.033333 
1.816529 -0.560842 0.033333 
1.794982 -0.528050 0.033333 
1.774963 -0.501346 0.033333 
1.747085 -0.465645 0.033333 
1.720726 -0.433157 0.033333 
1.694684 -0.402963 0.033333 
1.667957 -0.374217 0.033333 
1.640359 -0.346374 0.033333 
1.611905 -0.318967 0.033333 
1.582609 -0.291733 0.033333 
1.552480 -0.265233 0.033333 
1.521524 -0.240236 0.033333 
1.489726 -0.217387 0.033333 
1.456987 -0.196830 0.033333 
1.423189 -0.178585 0.033333 
1.387899 -0.162438 0.033333 
1.349438 -0.147247 0.033333 
1.305811 -0.131635 0.033333 
1.272186 -0.120782 0.033333 
1.230668 -0.111531 0.033333 
1.176544 -0.106284 0.033333 
1.143282 -0.105912 0.033333 
1.105102 -0.107442 0.033333 
1.061415 -0.111173 0.033333 
1.887776 -0.675204 0.066667 
1.874557 -0.643843 0.066667 
1.861943 -0.616115 0.066667 
1.849895 -0.591632 0.066667 
1.827338 -0.550837 0.066667 
1.806574 -0.518337 0.066667 
1.787287 -0.491010 0.066667 
1.760422 -0.454461 0.066667 
1.735004 -0.421393 0.066667 
1.709861 -0.390668 0.066667 
1.684018 -0.361292 0.066667 
1.657282 -0.332846 0.066667 
1.629657 -0.305054 0.066667 
1.601146 -0.277717 0.066667 
1.571750 -0.250945 0.066667 
1.541469 -0.224929 0.066667 
1.510284 -0.199957 0.066667 
1.478090 -0.176724 0.066667 
1.444766 -0.156026 0.066667 
1.409878 -0.138147 0.066667 
1.371751 -0.121332 0.066667 
1.328402 -0.103318 0.066667 
1.294744 -0.090115 0.066667 
1.252026 -0.078258 0.066667 
1.194390 -0.070631 0.066667 
1.158147 -0.069305 0.066667 
1.115977 -0.070119 0.066667 
1.067150 -0.073434 0.066667 
1.884909 -0.680105 0.066667 
1.871532 -0.648388 0.066667 
1.858766 -0.620396 0.066667 
1.846571 -0.595727 0.066667 
1.823735 -0.554751 0.066667 
1.802710 -0.522250 0.066667 
1.783179 -0.495013 0.066667 
1.755976 -0.458621 0.066667 
1.730244 -0.425711 0.066667 
1.704802 -0.395150 0.066667 
1.678664 -0.365942 0.066667 
1.651641 -0.337659 0.066667 
1.623740 -0.310012 0.066667 
1.594967 -0.282812 0.066667 
1.565327 -0.256268 0.066667 
1.534821 -0.230690 0.066667 
1.503431 -0.206426 0.066667 
1.471056 -0.183993 0.066667 
1.437574 -0.163947 0.066667 
1.402552 -0.146448 0.066667 
1.364313 -0.130056 0.066667 
1.320872 -0.112936 0.066667 
1.287225 -0.100722 0.066667 
1.244907 -0.089892 0.066667 
1.188441 -0.082970 0.066667 
1.153192 -0.081763 0.066667 
1.112352 -0.082481 0.066667 
1.065238 -0.085437 0.066667 
1.882041 -0.685006 0.066667 
1.868507 -0.652934 0.066667 
1.855589 -0.624677 0.066667 
1.843247 -0.599822 0.066667 
1.820132 -0.558666 0.066667 
1.798846 -0.526164 0.066667 
1.779071 -0.499016 0.066667 
1.751530 -0.462780 0.066667 
1.725485 -0.430030 0.066667 
1.699743 -0.399632 0.066667 
1.673311 -0.370592 0.066667 
1.646000 -0.342471 0.066667 
1.617822 -0.314969 0.066667 
1.588788 -0.287907 0.066667 
1.558904 -0.261591 0.066667 
1.528173 -0.236450 0.066667 
1.496579 -0.212895 0.066667 
1.464022 -0.191261 0.066667 
1.430381 -0.171869 0.066667 
1.395225 -0.154749 0.066667 
1.356875 -0.138780 0.066667 
1.313342 -0.122554 0.066667 
1.279706 -0.111328 0.066667 
1.237787 -0.101525 0.066667 
1.182492 -0.095309 0.066667 
1.148237 -0.094221 0.066667 
1.108727 -0.094842 0.066667 
1.063326 -0.097440 0.066667 
1.879173 -0.689906 0.066667 
1.865482 -0.657480 0.066667 
1.852412 -0.628959 0.066667 
1.839923 -0.603917 0.066667 
1.816529 -0.562580 0.066667 
1.794982 -0.530078 0.066667 
1.774963 -0.503019 0.066667 
1.747085 -0.466940 0.066667 
1.720726 -0.434348 0.066667 
1.694684 -0.404113 0.066667 
1.667957 -0.375242 0.066667 
1.640359 -0.347284 0.066667 
1.611905 -0.319927 0.066667 
1.582609 -0.293002 0.066667 
1.552480 -0.266914 0.066667 
1.521524 -0.242211 0.066667 
1.489726 -0.219363 0.066667 
1.456987 -0.198530 0.066667 
1.423189 -0.179791 0.066667 
1.387899 -0.163050 0.066667 
1.349438 -0.147504 0.066667 
1.305811 -0.132172 0.066667 
1.272186 -0.121934 0.066667 
1.230668 -0.113159 0.066667 
1.176544 -0.107647 0.066667 
1.143282 -0.106679 0.066667 
1.105102 -0.107203 0.066667 
1.061415 -0.109444 0.066667 
1.887776 -0.667748 0.100000 
1.874557 -0.639623 0.100000 
1.861943 -0.614326 0.100000 
1.849895 -0.591573 0.100000 
1.827338 -0.552574 0.100000 
1.806574 -0.520365 0.100000 
1.787287 -0.492684 0.100000 
1.760422 -0.455756 0.100000 
1.735004 -0.422584 0.100000 
1.709861 -0.391819 0.100000 
1.684018 -0.362300 0.100000 
1.657282 -0.333618 0.100000 
1.629657 -0.305548 0.100000 
1.601146 -0.277953 0.100000 
1.571750 -0.251035 0.100000 
1.541469 -0.225078 0.100000 
1.510284 -0.200412 0.100000 
1.478090 -0.177542 0.100000 
1.444766 -0.157013 0.100000 
1.409878 -0.139005 0.100000 
1.371751 -0.122234 0.100000 
1.328402 -0.105053 0.100000 
1.294744 -0.092981 0.100000 
1.252026 -0.082056 0.100000 
1.194390 -0.074344 0.100000 
1.158147 -0.072338 0.100000 
1.115977 -0.071908 0.100000 
1.067150 -0.073314 0.100000 
1.884909 -0.672648 0.100000 
1.871532 -0.644169 0.100000 
1.858766 -0.618607 0.100000 
1.846571 -0.595669 0.100000 
1.823735 -0.556489 0.100000 
1.802710 -0.524279 0.100000 
1.783179 -0.496687 0.100000 
1.755976 -0.459916 0.100000 
1.730244 -0.426902 0.100000 
1.704802 -0.396300 0.100000 
1.678664 -0.366956 0.100000 
1.651641 -0.338476 0.100000 
1.623740 -0.310661 0.100000 
1.594967 -0.283393 0.100000 
1.565327 -0.256888 0.100000 
1.534821 -0.231447 0.100000 
1.503431 -0.207388 0.100000 
1.471056 -0.185105 0.100000 
1.437574 -0.165007 0.100000 
1.402552 -0.147224 0.100000 
1.364313 -0.130743 0.100000 
1.320872 -0.114271 0.100000 
1.287225 -0.103016 0.100000 
1.244907 -0.092966 0.100000 
1.188441 -0.085900 0.100000 
1.153192 -0.084040 0.100000 
1.112352 -0.083593 0.100000 
1.065238 -0.084781 0.100000 
1.882041 -0.677549 0.100000 
1.868507 -0.648715 0.100000 
1.855589 -0.622888 0.100000 
1.843247 -0.599764 0.100000 
1.820132 -0.560404 0.100000 
1.798846 -0.528193 0.100000 
1.779071 -0.500690 0.100000 
1.751530 -0.464076 0.100000 
1.725485 -0.431221 0.100000 
1.699743 -0.400782 0.100000 
1.673311 -0.371611 0.100000 
1.646000 -0.343335 0.100000 
1.617822 -0.315774 0.100000 
1.588788 -0.288832 0.100000 
1.558904 -0.262741 0.100000 
1.528173 -0.237816 0.100000 
1.496579 -0.214364 0.100000 
1.464022 -0.192667 0.100000 
1.430381 -0.173002 0.100000 
1.395225 -0.155443 0.100000 
1.356875 -0.139252 0.100000 
1.313342 -0.123490 0.100000 
1.279706 -0.113051 0.100000 
1.237787 -0.103876 0.100000 
1.182492 -0.097455 0.100000 
1.148237 -0.095743 0.100000 
1.108727 -0.095279 0.100000 
1.063326 -0.096248 0.100000 
1.879173 -0.682449 0.100000 
1.865482 -0.653260 0.100000 
1.852412 -0.627169 0.100000 
1.839923 -0.603859 0.100000 
1.816529 -0.564318 0.100000 
1.794982 -0.532106 0.100000 
1.774963 -0.504693 0.100000 
1.747085 -0.468235 0.100000 
1.720726 -0.435539 0.100000 
1.694684 -0.405264 0.100000 
1.667957 -0.376267 0.100000 
1.640359 -0.348193 0.100000 
1.611905 -0.320887 0.100000 
1.582609 -0.294271 0.100000 
1.552480 -0.268595 0.100000 
1.521524 -0.244185 0.100000 
1.489726 -0.221340 0.100000 
1.456987 -0.200230 0.100000 
1.423189 -0.180997 0.100000 
1.387899 -0.163662 0.100000 
1.349438 -0.147760 0.100000 
1.305811 -0.132708 0.100000 
1.272186 -0.123087 0.100000 
1.230668 -0.114786 0.100000 
1.176544 -0.109011 0.100000 
1.143282 -0.107446 0.100000 
1.105102 -0.106964 0.100000 
1.061415 -0.107715 0.100000 
