VARIABLES = "CoordinateX", "CoordinateY", "CoordinateZ"
Zone T="FFD_vol0" I=10 J=2 K=2
DATAPACKING=POINT
1.000000 -0.040431 0.000000 
0.973716 0.114555 0.000000 
0.899672 0.208614 0.000000 
0.763006 0.308978 0.000000 
0.615441 0.339101 0.000000 
0.384559 0.339101 0.000000 
0.236994 0.308978 0.000000 
0.100328 0.208614 0.000000 
0.026284 0.114555 0.000000 
0.000000 -0.040431 0.000000 
1.000000 -0.050431 0.000000 
0.962798 0.016671 0.000000 
0.913486 0.059315 0.000000 
0.797974 0.152160 0.000000 
0.643930 0.207580 0.000000 
0.356070 0.207580 0.000000 
0.202026 0.152160 0.000000 
0.086514 0.059315 0.000000 
0.037202 0.016671 0.000000 
0.000000 -0.050431 0.000000 
1.000000 -0.040431 0.100000 
0.973716 0.114555 0.100000 
0.899672 0.208614 0.100000 
0.763006 0.308978 0.100000 
0.615441 0.339101 0.100000 
0.384559 0.339101 0.100000 
0.236994 0.308978 0.100000 
0.100328 0.208614 0.100000 
0.026284 0.114555 0.100000 
0.000000 -0.040431 0.100000 
1.000000 -0.050431 0.100000 
0.962798 0.016671 0.100000 
0.913486 0.059315 0.100000 
0.797974 0.152160 0.100000 
0.643930 0.207580 0.100000 
0.356070 0.207580 0.100000 
0.202026 0.152160 0.100000 
0.086514 0.059315 0.100000 
0.037202 0.016671 0.100000 
0.000000 -0.050431 0.100000 
Zone T="embedding_vol" I=28 J=4 K=4
DATAPACKING=POINT
1.000000 -0.040431 0.000000 
0.990850 0.007371 0.000000 
0.980958 0.048010 0.000000 
0.970376 0.082316 0.000000 
0.947360 0.135266 0.000000 
0.922228 0.172883 0.000000 
0.895405 0.201826 0.000000 
0.852785 0.239624 0.000000 
0.807865 0.271803 0.000000 
0.761190 0.297271 0.000000 
0.712765 0.315364 0.000000 
0.660448 0.327139 0.000000 
0.601555 0.334080 0.000000 
0.534880 0.337427 0.000000 
0.465120 0.337427 0.000000 
0.398445 0.334080 0.000000 
0.339552 0.327139 0.000000 
0.287235 0.315364 0.000000 
0.238810 0.297271 0.000000 
0.192135 0.271803 0.000000 
0.147215 0.239624 0.000000 
0.104595 0.201826 0.000000 
0.077772 0.172883 0.000000 
0.052640 0.135266 0.000000 
0.029624 0.082316 0.000000 
0.019042 0.048010 0.000000 
0.009150 0.007371 0.000000 
0.000000 -0.040431 0.000000 
1.000000 -0.043764 0.000000 
0.989912 -0.004982 0.000000 
0.979586 0.028032 0.000000 
0.969004 0.055973 0.000000 
0.946999 0.099408 0.000000 
0.923753 0.130876 0.000000 
0.899124 0.155927 0.000000 
0.859421 0.190235 0.000000 
0.816683 0.221049 0.000000 
0.771310 0.246822 0.000000 
0.723143 0.266391 0.000000 
0.669776 0.280139 0.000000 
0.608246 0.288835 0.000000 
0.537318 0.293119 0.000000 
0.462682 0.293119 0.000000 
0.391754 0.288835 0.000000 
0.330224 0.280139 0.000000 
0.276857 0.266391 0.000000 
0.228690 0.246822 0.000000 
0.183317 0.221049 0.000000 
0.140579 0.190235 0.000000 
0.100876 0.155927 0.000000 
0.076247 0.130876 0.000000 
0.053001 0.099408 0.000000 
0.030996 0.055973 0.000000 
0.020414 0.028032 0.000000 
0.010088 -0.004982 0.000000 
0.000000 -0.043764 0.000000 
1.000000 -0.047098 0.000000 
0.988975 -0.017336 0.000000 
0.978215 0.008054 0.000000 
0.967632 0.029629 0.000000 
0.946637 0.063550 0.000000 
0.925278 0.088869 0.000000 
0.902843 0.110028 0.000000 
0.866057 0.140847 0.000000 
0.825501 0.170296 0.000000 
0.781431 0.196372 0.000000 
0.733520 0.217417 0.000000 
0.679104 0.233139 0.000000 
0.614937 0.243589 0.000000 
0.539756 0.248810 0.000000 
0.460244 0.248810 0.000000 
0.385063 0.243589 0.000000 
0.320896 0.233139 0.000000 
0.266480 0.217417 0.000000 
0.218569 0.196372 0.000000 
0.174499 0.170296 0.000000 
0.133943 0.140847 0.000000 
0.097157 0.110028 0.000000 
0.074722 0.088869 0.000000 
0.053363 0.063550 0.000000 
0.032368 0.029629 0.000000 
0.021785 0.008054 0.000000 
0.011025 -0.017336 0.000000 
0.000000 -0.047098 0.000000 
1.000000 -0.050431 0.000000 
0.988037 -0.029690 0.000000 
0.976844 -0.011923 0.000000 
0.966259 0.003285 0.000000 
0.946275 0.027692 0.000000 
0.926804 0.046863 0.000000 
0.906562 0.064128 0.000000 
0.872693 0.091458 0.000000 
0.834319 0.119542 0.000000 
0.791552 0.145922 0.000000 
0.743897 0.168443 0.000000 
0.688432 0.186139 0.000000 
0.621627 0.198344 0.000000 
0.542195 0.204502 0.000000 
0.457805 0.204502 0.000000 
0.378373 0.198344 0.000000 
0.311568 0.186139 0.000000 
0.256103 0.168443 0.000000 
0.208448 0.145922 0.000000 
0.165681 0.119542 0.000000 
0.127307 0.091458 0.000000 
0.093438 0.064128 0.000000 
0.073196 0.046863 0.000000 
0.053725 0.027692 0.000000 
0.033741 0.003285 0.000000 
0.023156 -0.011923 0.000000 
0.011963 -0.029690 0.000000 
0.000000 -0.050431 0.000000 
1.000000 -0.040431 0.033333 
0.990850 0.007371 0.033333 
0.980958 0.048010 0.033333 
0.970376 0.082316 0.033333 
0.947360 0.135266 0.033333 
0.922228 0.172883 0.033333 
0.895405 0.201826 0.033333 
0.852785 0.239624 0.033333 
0.807865 0.271803 0.033333 
0.761190 0.297271 0.033333 
0.712765 0.315364 0.033333 
0.660448 0.327139 0.033333 
0.601555 0.334080 0.033333 
0.534880 0.337427 0.033333 
0.465120 0.337427 0.033333 
0.398445 0.334080 0.033333 
0.339552 0.327139 0.033333 
0.287235 0.315364 0.033333 
0.238810 0.297271 0.033333 
0.192135 0.271803 0.033333 
0.147215 0.239624 0.033333 
0.104595 0.201826 0.033333 
0.077772 0.172883 0.033333 
0.052640 0.135266 0.033333 
0.029624 0.082316 0.033333 
0.019042 0.048010 0.033333 
0.009150 0.007371 0.033333 
0.000000 -0.040431 0.033333 
1.000000 -0.043764 0.033333 
0.989912 -0.004982 0.033333 
0.979586 0.028032 0.033333 
0.969004 0.055973 0.033333 
0.946999 0.099408 0.033333 
0.923753 0.130876 0.033333 
0.899124 0.155927 0.033333 
0.859421 0.190235 0.033333 
0.816683 0.221049 0.033333 
0.771310 0.246822 0.033333 
0.723143 0.266391 0.033333 
0.669776 0.280139 0.033333 
0.608246 0.288835 0.033333 
0.537318 0.293119 0.033333 
0.462682 0.293119 0.033333 
0.391754 0.288835 0.033333 
0.330224 0.280139 0.033333 
0.276857 0.266391 0.033333 
0.228690 0.246822 0.033333 
0.183317 0.221049 0.033333 
0.140579 0.190235 0.033333 
0.100876 0.155927 0.033333 
0.076247 0.130876 0.033333 
0.053001 0.099408 0.033333 
0.030996 0.055973 0.033333 
0.020414 0.028032 0.033333 
0.010088 -0.004982 0.033333 
0.000000 -0.043764 0.033333 
1.000000 -0.047098 0.033333 
0.988975 -0.017336 0.033333 
0.978215 0.008054 0.033333 
0.967632 0.029629 0.033333 
0.946637 0.063550 0.033333 
0.925278 0.088869 0.033333 
0.902843 0.110028 0.033333 
0.866057 0.140847 0.033333 
0.825501 0.170296 0.033333 
0.781431 0.196372 0.033333 
0.733520 0.217417 0.033333 
0.679104 0.233139 0.033333 
0.614937 0.243589 0.033333 
0.539756 0.248810 0.033333 
0.460244 0.248810 0.033333 
0.385063 0.243589 0.033333 
0.320896 0.233139 0.033333 
0.266480 0.217417 0.033333 
0.218569 0.196372 0.033333 
0.174499 0.170296 0.033333 
0.133943 0.140847 0.033333 
0.097157 0.110028 0.033333 
0.074722 0.088869 0.033333 
0.053363 0.063550 0.033333 
0.032368 0.029629 0.033333 
0.021785 0.008054 0.033333 
0.011025 -0.017336 0.033333 
0.000000 -0.047098 0.033333 
1.000000 -0.050431 0.033333 
0.988037 -0.029690 0.033333 
0.976844 -0.011923 0.033333 
0.966259 0.003285 0.033333 
0.946275 0.027692 0.033333 
0.926804 0.046863 0.033333 
0.906562 0.064128 0.033333 
0.872693 0.091458 0.033333 
0.834319 0.119542 0.033333 
0.791552 0.145922 0.033333 
0.743897 0.168443 0.033333 
0.688432 0.186139 0.033333 
0.621627 0.198344 0.033333 
0.542195 0.204502 0.033333 
0.457805 0.204502 0.033333 
0.378373 0.198344 0.033333 
0.311568 0.186139 0.033333 
0.256103 0.168443 0.033333 
0.208448 0.145922 0.033333 
0.165681 0.119542 0.033333 
0.127307 0.091458 0.033333 
0.093438 0.064128 0.033333 
0.073196 0.046863 0.033333 
0.053725 0.027692 0.033333 
0.033741 0.003285 0.033333 
0.023156 -0.011923 0.033333 
0.011963 -0.029690 0.033333 
0.000000 -0.050431 0.033333 
1.000000 -0.040431 0.066667 
0.990850 0.007371 0.066667 
0.980958 0.048010 0.066667 
0.970376 0.082316 0.066667 
0.947360 0.135266 0.066667 
0.922228 0.172883 0.066667 
0.895405 0.201826 0.066667 
0.852785 0.239624 0.066667 
0.807865 0.271803 0.066667 
0.761190 0.297271 0.066667 
0.712765 0.315364 0.066667 
0.660448 0.327139 0.066667 
0.601555 0.334080 0.066667 
0.534880 0.337427 0.066667 
0.465120 0.337427 0.066667 
0.398445 0.334080 0.066667 
0.339552 0.327139 0.066667 
0.287235 0.315364 0.066667 
0.238810 0.297271 0.066667 
0.192135 0.271803 0.066667 
0.147215 0.239624 0.066667 
0.104595 0.201826 0.066667 
0.077772 0.172883 0.066667 
0.052640 0.135266 0.066667 
0.029624 0.082316 0.066667 
0.019042 0.048010 0.066667 
0.009150 0.007371 0.066667 
0.000000 -0.040431 0.066667 
1.000000 -0.043764 0.066667 
0.989912 -0.004982 0.066667 
0.979586 0.028032 0.066667 
0.969004 0.055973 0.066667 
0.946999 0.099408 0.066667 
0.923753 0.130876 0.066667 
0.899124 0.155927 0.066667 
0.859421 0.190235 0.066667 
0.816683 0.221049 0.066667 
0.771310 0.246822 0.066667 
0.723143 0.266391 0.066667 
0.669776 0.280139 0.066667 
0.608246 0.288835 0.066667 
0.537318 0.293119 0.066667 
0.462682 0.293119 0.066667 
0.391754 0.288835 0.066667 
0.330224 0.280139 0.066667 
0.276857 0.266391 0.066667 
0.228690 0.246822 0.066667 
0.183317 0.221049 0.066667 
0.140579 0.190235 0.066667 
0.100876 0.155927 0.066667 
0.076247 0.130876 0.066667 
0.053001 0.099408 0.066667 
0.030996 0.055973 0.066667 
0.020414 0.028032 0.066667 
0.010088 -0.004982 0.066667 
0.000000 -0.043764 0.066667 
1.000000 -0.047098 0.066667 
0.988975 -0.017336 0.066667 
0.978215 0.008054 0.066667 
0.967632 0.029629 0.066667 
0.946637 0.063550 0.066667 
0.925278 0.088869 0.066667 
0.902843 0.110028 0.066667 
0.866057 0.140847 0.066667 
0.825501 0.170296 0.066667 
0.781431 0.196372 0.066667 
0.733520 0.217417 0.066667 
0.679104 0.233139 0.066667 
0.614937 0.243589 0.066667 
0.539756 0.248810 0.066667 
0.460244 0.248810 0.066667 
0.385063 0.243589 0.066667 
0.320896 0.233139 0.066667 
0.266480 0.217417 0.066667 
0.218569 0.196372 0.066667 
0.174499 0.170296 0.066667 
0.133943 0.140847 0.066667 
0.097157 0.110028 0.066667 
0.074722 0.088869 0.066667 
0.053363 0.063550 0.066667 
0.032368 0.029629 0.066667 
0.021785 0.008054 0.066667 
0.011025 -0.017336 0.066667 
0.000000 -0.047098 0.066667 
1.000000 -0.050431 0.066667 
0.988037 -0.029690 0.066667 
0.976844 -0.011923 0.066667 
0.966259 0.003285 0.066667 
0.946275 0.027692 0.066667 
0.926804 0.046863 0.066667 
0.906562 0.064128 0.066667 
0.872693 0.091458 0.066667 
0.834319 0.119542 0.066667 
0.791552 0.145922 0.066667 
0.743897 0.168443 0.066667 
0.688432 0.186139 0.066667 
0.621627 0.198344 0.066667 
0.542195 0.204502 0.066667 
0.457805 0.204502 0.066667 
0.378373 0.198344 0.066667 
0.311568 0.186139 0.066667 
0.256103 0.168443 0.066667 
0.208448 0.145922 0.066667 
0.165681 0.119542 0.066667 
0.127307 0.091458 0.066667 
0.093438 0.064128 0.066667 
0.073196 0.046863 0.066667 
0.053725 0.027692 0.066667 
0.033741 0.003285 0.066667 
0.023156 -0.011923 0.066667 
0.011963 -0.029690 0.066667 
0.000000 -0.050431 0.066667 
1.000000 -0.040431 0.100000 
0.990850 0.007371 0.100000 
0.980958 0.048010 0.100000 
0.970376 0.082316 0.100000 
0.947360 0.135266 0.100000 
0.922228 0.172883 0.100000 
0.895405 0.201826 0.100000 
0.852785 0.239624 0.100000 
0.807865 0.271803 0.100000 
0.761190 0.297271 0.100000 
0.712765 0.315364 0.100000 
0.660448 0.327139 0.100000 
0.601555 0.334080 0.100000 
0.534880 0.337427 0.100000 
0.465120 0.337427 0.100000 
0.398445 0.334080 0.100000 
0.339552 0.327139 0.100000 
0.287235 0.315364 0.100000 
0.238810 0.297271 0.100000 
0.192135 0.271803 0.100000 
0.147215 0.239624 0.100000 
0.104595 0.201826 0.100000 
0.077772 0.172883 0.100000 
0.052640 0.135266 0.100000 
0.029624 0.082316 0.100000 
0.019042 0.048010 0.100000 
0.009150 0.007371 0.100000 
0.000000 -0.040431 0.100000 
1.000000 -0.043764 0.100000 
0.989912 -0.004982 0.100000 
0.979586 0.028032 0.100000 
0.969004 0.055973 0.100000 
0.946999 0.099408 0.100000 
0.923753 0.130876 0.100000 
0.899124 0.155927 0.100000 
0.859421 0.190235 0.100000 
0.816683 0.221049 0.100000 
0.771310 0.246822 0.100000 
0.723143 0.266391 0.100000 
0.669776 0.280139 0.100000 
0.608246 0.288835 0.100000 
0.537318 0.293119 0.100000 
0.462682 0.293119 0.100000 
0.391754 0.288835 0.100000 
0.330224 0.280139 0.100000 
0.276857 0.266391 0.100000 
0.228690 0.246822 0.100000 
0.183317 0.221049 0.100000 
0.140579 0.190235 0.100000 
0.100876 0.155927 0.100000 
0.076247 0.130876 0.100000 
0.053001 0.099408 0.100000 
0.030996 0.055973 0.100000 
0.020414 0.028032 0.100000 
0.010088 -0.004982 0.100000 
0.000000 -0.043764 0.100000 
1.000000 -0.047098 0.100000 
0.988975 -0.017336 0.100000 
0.978215 0.008054 0.100000 
0.967632 0.029629 0.100000 
0.946637 0.063550 0.100000 
0.925278 0.088869 0.100000 
0.902843 0.110028 0.100000 
0.866057 0.140847 0.100000 
0.825501 0.170296 0.100000 
0.781431 0.196372 0.100000 
0.733520 0.217417 0.100000 
0.679104 0.233139 0.100000 
0.614937 0.243589 0.100000 
0.539756 0.248810 0.100000 
0.460244 0.248810 0.100000 
0.385063 0.243589 0.100000 
0.320896 0.233139 0.100000 
0.266480 0.217417 0.100000 
0.218569 0.196372 0.100000 
0.174499 0.170296 0.100000 
0.133943 0.140847 0.100000 
0.097157 0.110028 0.100000 
0.074722 0.088869 0.100000 
0.053363 0.063550 0.100000 
0.032368 0.029629 0.100000 
0.021785 0.008054 0.100000 
0.011025 -0.017336 0.100000 
0.000000 -0.047098 0.100000 
1.000000 -0.050431 0.100000 
0.988037 -0.029690 0.100000 
0.976844 -0.011923 0.100000 
0.966259 0.003285 0.100000 
0.946275 0.027692 0.100000 
0.926804 0.046863 0.100000 
0.906562 0.064128 0.100000 
0.872693 0.091458 0.100000 
0.834319 0.119542 0.100000 
0.791552 0.145922 0.100000 
0.743897 0.168443 0.100000 
0.688432 0.186139 0.100000 
0.621627 0.198344 0.100000 
0.542195 0.204502 0.100000 
0.457805 0.204502 0.100000 
0.378373 0.198344 0.100000 
0.311568 0.186139 0.100000 
0.256103 0.168443 0.100000 
0.208448 0.145922 0.100000 
0.165681 0.119542 0.100000 
0.127307 0.091458 0.100000 
0.093438 0.064128 0.100000 
0.073196 0.046863 0.100000 
0.053725 0.027692 0.100000 
0.033741 0.003285 0.100000 
0.023156 -0.011923 0.100000 
0.011963 -0.029690 0.100000 
0.000000 -0.050431 0.100000 
Zone T="FFD_vol1" I=10 J=2 K=2
DATAPACKING=POINT
1.826308 -0.824418 0.000000 
1.786473 -0.666026 0.000000 
1.723394 -0.570308 0.000000 
1.651941 -0.484717 0.000000 
1.572378 -0.389230 0.000000 
1.484718 -0.325429 0.000000 
1.389140 -0.249960 0.000000 
1.282085 -0.192382 0.000000 
1.167447 -0.146011 0.000000 
1.010112 -0.193517 0.000000 
1.817613 -0.836641 0.000000 
1.776332 -0.679082 0.000000 
1.710801 -0.584999 0.000000 
1.636625 -0.501550 0.000000 
1.554411 -0.408539 0.000000 
1.464515 -0.347235 0.000000 
1.367268 -0.274106 0.000000 
1.259226 -0.218646 0.000000 
1.144213 -0.173697 0.000000 
1.004316 -0.201665 0.000000 
1.826308 -0.824418 0.100000 
1.786473 -0.666026 0.100000 
1.723394 -0.570308 0.100000 
1.651941 -0.484717 0.100000 
1.572378 -0.389230 0.100000 
1.484718 -0.325429 0.100000 
1.389140 -0.249960 0.100000 
1.282085 -0.192382 0.100000 
1.167447 -0.146011 0.100000 
1.010112 -0.193517 0.100000 
1.817613 -0.836641 0.100000 
1.776332 -0.679082 0.100000 
1.710801 -0.584999 0.100000 
1.636625 -0.501550 0.100000 
1.554411 -0.408539 0.100000 
1.464515 -0.347235 0.100000 
1.367268 -0.274106 0.100000 
1.259226 -0.218646 0.100000 
1.144213 -0.173697 0.100000 
1.004316 -0.201665 0.100000 
Zone T="embedding_vol" I=28 J=4 K=4
DATAPACKING=POINT
1.826308 -0.824418 0.000000 
1.813331 -0.775576 0.000000 
1.800932 -0.734092 0.000000 
1.789074 -0.699134 0.000000 
1.766837 -0.645481 0.000000 
1.746328 -0.607974 0.000000 
1.727255 -0.579973 0.000000 
1.700670 -0.544580 0.000000 
1.675501 -0.513117 0.000000 
1.650589 -0.483068 0.000000 
1.624969 -0.452595 0.000000 
1.598449 -0.422563 0.000000 
1.571028 -0.394511 0.000000 
1.542709 -0.369455 0.000000 
1.513497 -0.346315 0.000000 
1.483398 -0.323484 0.000000 
1.452397 -0.299807 0.000000 
1.420383 -0.275928 0.000000 
1.387227 -0.252942 0.000000 
1.352487 -0.231577 0.000000 
1.314494 -0.211093 0.000000 
1.271268 -0.190385 0.000000 
1.237685 -0.176761 0.000000 
1.195024 -0.167332 0.000000 
1.137412 -0.166883 0.000000 
1.101164 -0.171521 0.000000 
1.058975 -0.180200 0.000000 
1.010112 -0.193517 0.000000 
1.823410 -0.828492 0.000000 
1.810275 -0.779743 0.000000 
1.797723 -0.738350 0.000000 
1.785717 -0.703484 0.000000 
1.763200 -0.650011 0.000000 
1.742428 -0.612682 0.000000 
1.723110 -0.584852 0.000000 
1.696186 -0.549711 0.000000 
1.670702 -0.518495 0.000000 
1.645488 -0.488697 0.000000 
1.619572 -0.458487 0.000000 
1.592762 -0.428725 0.000000 
1.565062 -0.400948 0.000000 
1.536480 -0.376169 0.000000 
1.507021 -0.353304 0.000000 
1.476695 -0.330744 0.000000 
1.445488 -0.307332 0.000000 
1.413291 -0.283712 0.000000 
1.379974 -0.260978 0.000000 
1.345099 -0.239857 0.000000 
1.306992 -0.219613 0.000000 
1.263672 -0.199141 0.000000 
1.230099 -0.185600 0.000000 
1.187841 -0.175810 0.000000 
1.131409 -0.174111 0.000000 
1.096163 -0.177653 0.000000 
1.055315 -0.184846 0.000000 
1.008180 -0.196233 0.000000 
1.820512 -0.832567 0.000000 
1.807218 -0.783910 0.000000 
1.794514 -0.742609 0.000000 
1.782361 -0.707834 0.000000 
1.759562 -0.654542 0.000000 
1.738529 -0.617389 0.000000 
1.718966 -0.589732 0.000000 
1.691702 -0.554842 0.000000 
1.665902 -0.523873 0.000000 
1.640387 -0.494327 0.000000 
1.614174 -0.464378 0.000000 
1.587074 -0.434887 0.000000 
1.559097 -0.407386 0.000000 
1.530250 -0.382883 0.000000 
1.500545 -0.360292 0.000000 
1.469993 -0.338004 0.000000 
1.438579 -0.314858 0.000000 
1.406198 -0.291497 0.000000 
1.372721 -0.269014 0.000000 
1.337711 -0.248138 0.000000 
1.299491 -0.228132 0.000000 
1.256076 -0.207896 0.000000 
1.222514 -0.194439 0.000000 
1.180658 -0.184288 0.000000 
1.125406 -0.181340 0.000000 
1.091162 -0.183785 0.000000 
1.051655 -0.189492 0.000000 
1.006248 -0.198949 0.000000 
1.817613 -0.836641 0.000000 
1.804162 -0.788077 0.000000 
1.791305 -0.746868 0.000000 
1.779004 -0.712184 0.000000 
1.755925 -0.659072 0.000000 
1.734630 -0.622096 0.000000 
1.714821 -0.594612 0.000000 
1.687217 -0.559972 0.000000 
1.661103 -0.529250 0.000000 
1.635286 -0.499956 0.000000 
1.608776 -0.470270 0.000000 
1.581387 -0.441049 0.000000 
1.553131 -0.413823 0.000000 
1.524021 -0.389597 0.000000 
1.494070 -0.367281 0.000000 
1.463290 -0.345264 0.000000 
1.431669 -0.322384 0.000000 
1.399105 -0.299282 0.000000 
1.365468 -0.277051 0.000000 
1.330322 -0.256418 0.000000 
1.291989 -0.236651 0.000000 
1.248480 -0.216652 0.000000 
1.214928 -0.203278 0.000000 
1.173475 -0.192766 0.000000 
1.119403 -0.188569 0.000000 
1.086161 -0.189917 0.000000 
1.047995 -0.194139 0.000000 
1.004316 -0.201665 0.000000 
1.826308 -0.824418 0.033333 
1.813331 -0.775576 0.033333 
1.800932 -0.734092 0.033333 
1.789074 -0.699134 0.033333 
1.766837 -0.645481 0.033333 
1.746328 -0.607974 0.033333 
1.727255 -0.579973 0.033333 
1.700670 -0.544580 0.033333 
1.675501 -0.513117 0.033333 
1.650589 -0.483068 0.033333 
1.624969 -0.452595 0.033333 
1.598449 -0.422563 0.033333 
1.571028 -0.394511 0.033333 
1.542709 -0.369455 0.033333 
1.513497 -0.346315 0.033333 
1.483398 -0.323484 0.033333 
1.452397 -0.299807 0.033333 
1.420383 -0.275928 0.033333 
1.387227 -0.252942 0.033333 
1.352487 -0.231577 0.033333 
1.314494 -0.211093 0.033333 
1.271268 -0.190385 0.033333 
1.237685 -0.176761 0.033333 
1.195024 -0.167332 0.033333 
1.137412 -0.166883 0.033333 
1.101164 -0.171521 0.033333 
1.058975 -0.180200 0.033333 
1.010112 -0.193517 0.033333 
1.823410 -0.828492 0.033333 
1.810275 -0.779743 0.033333 
1.797723 -0.738350 0.033333 
1.785717 -0.703484 0.033333 
1.763200 -0.650011 0.033333 
1.742428 -0.612682 0.033333 
1.723110 -0.584852 0.033333 
1.696186 -0.549711 0.033333 
1.670702 -0.518495 0.033333 
1.645488 -0.488697 0.033333 
1.619572 -0.458487 0.033333 
1.592762 -0.428725 0.033333 
1.565062 -0.400948 0.033333 
1.536480 -0.376169 0.033333 
1.507021 -0.353304 0.033333 
1.476695 -0.330744 0.033333 
1.445488 -0.307332 0.033333 
1.413291 -0.283712 0.033333 
1.379974 -0.260978 0.033333 
1.345099 -0.239857 0.033333 
1.306992 -0.219613 0.033333 
1.263672 -0.199141 0.033333 
1.230099 -0.185600 0.033333 
1.187841 -0.175810 0.033333 
1.131409 -0.174111 0.033333 
1.096163 -0.177653 0.033333 
1.055315 -0.184846 0.033333 
1.008180 -0.196233 0.033333 
1.820512 -0.832567 0.033333 
1.807218 -0.783910 0.033333 
1.794514 -0.742609 0.033333 
1.782361 -0.707834 0.033333 
1.759562 -0.654542 0.033333 
1.738529 -0.617389 0.033333 
1.718966 -0.589732 0.033333 
1.691702 -0.554842 0.033333 
1.665902 -0.523873 0.033333 
1.640387 -0.494327 0.033333 
1.614174 -0.464378 0.033333 
1.587074 -0.434887 0.033333 
1.559097 -0.407386 0.033333 
1.530250 -0.382883 0.033333 
1.500545 -0.360292 0.033333 
1.469993 -0.338004 0.033333 
1.438579 -0.314858 0.033333 
1.406198 -0.291497 0.033333 
1.372721 -0.269014 0.033333 
1.337711 -0.248138 0.033333 
1.299491 -0.228132 0.033333 
1.256076 -0.207896 0.033333 
1.222514 -0.194439 0.033333 
1.180658 -0.184288 0.033333 
1.125406 -0.181340 0.033333 
1.091162 -0.183785 0.033333 
1.051655 -0.189492 0.033333 
1.006248 -0.198949 0.033333 
1.817613 -0.836641 0.033333 
1.804162 -0.788077 0.033333 
1.791305 -0.746868 0.033333 
1.779004 -0.712184 0.033333 
1.755925 -0.659072 0.033333 
1.734630 -0.622096 0.033333 
1.714821 -0.594612 0.033333 
1.687217 -0.559972 0.033333 
1.661103 -0.529250 0.033333 
1.635286 -0.499956 0.033333 
1.608776 -0.470270 0.033333 
1.581387 -0.441049 0.033333 
1.553131 -0.413823 0.033333 
1.524021 -0.389597 0.033333 
1.494070 -0.367281 0.033333 
1.463290 -0.345264 0.033333 
1.431669 -0.322384 0.033333 
1.399105 -0.299282 0.033333 
1.365468 -0.277051 0.033333 
1.330322 -0.256418 0.033333 
1.291989 -0.236651 0.033333 
1.248480 -0.216652 0.033333 
1.214928 -0.203278 0.033333 
1.173475 -0.192766 0.033333 
1.119403 -0.188569 0.033333 
1.086161 -0.189917 0.033333 
1.047995 -0.194139 0.033333 
1.004316 -0.201665 0.033333 
1.826308 -0.824418 0.066667 
1.813331 -0.775576 0.066667 
1.800932 -0.734092 0.066667 
1.789074 -0.699134 0.066667 
1.766837 -0.645481 0.066667 
1.746328 -0.607974 0.066667 
1.727255 -0.579973 0.066667 
1.700670 -0.544580 0.066667 
1.675501 -0.513117 0.066667 
1.650589 -0.483068 0.066667 
1.624969 -0.452595 0.066667 
1.598449 -0.422563 0.066667 
1.571028 -0.394511 0.066667 
1.542709 -0.369455 0.066667 
1.513497 -0.346315 0.066667 
1.483398 -0.323484 0.066667 
1.452397 -0.299807 0.066667 
1.420383 -0.275928 0.066667 
1.387227 -0.252942 0.066667 
1.352487 -0.231577 0.066667 
1.314494 -0.211093 0.066667 
1.271268 -0.190385 0.066667 
1.237685 -0.176761 0.066667 
1.195024 -0.167332 0.066667 
1.137412 -0.166883 0.066667 
1.101164 -0.171521 0.066667 
1.058975 -0.180200 0.066667 
1.010112 -0.193517 0.066667 
1.823410 -0.828492 0.066667 
1.810275 -0.779743 0.066667 
1.797723 -0.738350 0.066667 
1.785717 -0.703484 0.066667 
1.763200 -0.650011 0.066667 
1.742428 -0.612682 0.066667 
1.723110 -0.584852 0.066667 
1.696186 -0.549711 0.066667 
1.670702 -0.518495 0.066667 
1.645488 -0.488697 0.066667 
1.619572 -0.458487 0.066667 
1.592762 -0.428725 0.066667 
1.565062 -0.400948 0.066667 
1.536480 -0.376169 0.066667 
1.507021 -0.353304 0.066667 
1.476695 -0.330744 0.066667 
1.445488 -0.307332 0.066667 
1.413291 -0.283712 0.066667 
1.379974 -0.260978 0.066667 
1.345099 -0.239857 0.066667 
1.306992 -0.219613 0.066667 
1.263672 -0.199141 0.066667 
1.230099 -0.185600 0.066667 
1.187841 -0.175810 0.066667 
1.131409 -0.174111 0.066667 
1.096163 -0.177653 0.066667 
1.055315 -0.184846 0.066667 
1.008180 -0.196233 0.066667 
1.820512 -0.832567 0.066667 
1.807218 -0.783910 0.066667 
1.794514 -0.742609 0.066667 
1.782361 -0.707834 0.066667 
1.759562 -0.654542 0.066667 
1.738529 -0.617389 0.066667 
1.718966 -0.589732 0.066667 
1.691702 -0.554842 0.066667 
1.665902 -0.523873 0.066667 
1.640387 -0.494327 0.066667 
1.614174 -0.464378 0.066667 
1.587074 -0.434887 0.066667 
1.559097 -0.407386 0.066667 
1.530250 -0.382883 0.066667 
1.500545 -0.360292 0.066667 
1.469993 -0.338004 0.066667 
1.438579 -0.314858 0.066667 
1.406198 -0.291497 0.066667 
1.372721 -0.269014 0.066667 
1.337711 -0.248138 0.066667 
1.299491 -0.228132 0.066667 
1.256076 -0.207896 0.066667 
1.222514 -0.194439 0.066667 
1.180658 -0.184288 0.066667 
1.125406 -0.181340 0.066667 
1.091162 -0.183785 0.066667 
1.051655 -0.189492 0.066667 
1.006248 -0.198949 0.066667 
1.817613 -0.836641 0.066667 
1.804162 -0.788077 0.066667 
1.791305 -0.746868 0.066667 
1.779004 -0.712184 0.066667 
1.755925 -0.659072 0.066667 
1.734630 -0.622096 0.066667 
1.714821 -0.594612 0.066667 
1.687217 -0.559972 0.066667 
1.661103 -0.529250 0.066667 
1.635286 -0.499956 0.066667 
1.608776 -0.470270 0.066667 
1.581387 -0.441049 0.066667 
1.553131 -0.413823 0.066667 
1.524021 -0.389597 0.066667 
1.494070 -0.367281 0.066667 
1.463290 -0.345264 0.066667 
1.431669 -0.322384 0.066667 
1.399105 -0.299282 0.066667 
1.365468 -0.277051 0.066667 
1.330322 -0.256418 0.066667 
1.291989 -0.236651 0.066667 
1.248480 -0.216652 0.066667 
1.214928 -0.203278 0.066667 
1.173475 -0.192766 0.066667 
1.119403 -0.188569 0.066667 
1.086161 -0.189917 0.066667 
1.047995 -0.194139 0.066667 
1.004316 -0.201665 0.066667 
1.826308 -0.824418 0.100000 
1.813331 -0.775576 0.100000 
1.800932 -0.734092 0.100000 
1.789074 -0.699134 0.100000 
1.766837 -0.645481 0.100000 
1.746328 -0.607974 0.100000 
1.727255 -0.579973 0.100000 
1.700670 -0.544580 0.100000 
1.675501 -0.513117 0.100000 
1.650589 -0.483068 0.100000 
1.624969 -0.452595 0.100000 
1.598449 -0.422563 0.100000 
1.571028 -0.394511 0.100000 
1.542709 -0.369455 0.100000 
1.513497 -0.346315 0.100000 
1.483398 -0.323484 0.100000 
1.452397 -0.299807 0.100000 
1.420383 -0.275928 0.100000 
1.387227 -0.252942 0.100000 
1.352487 -0.231577 0.100000 
1.314494 -0.211093 0.100000 
1.271268 -0.190385 0.100000 
1.237685 -0.176761 0.100000 
1.195024 -0.167332 0.100000 
1.137412 -0.166883 0.100000 
1.101164 -0.171521 0.100000 
1.058975 -0.180200 0.100000 
1.010112 -0.193517 0.100000 
1.823410 -0.828492 0.100000 
1.810275 -0.779743 0.100000 
1.797723 -0.738350 0.100000 
1.785717 -0.703484 0.100000 
1.763200 -0.650011 0.100000 
1.742428 -0.612682 0.100000 
1.723110 -0.584852 0.100000 
1.696186 -0.549711 0.100000 
1.670702 -0.518495 0.100000 
1.645488 -0.488697 0.100000 
1.619572 -0.458487 0.100000 
1.592762 -0.428725 0.100000 
1.565062 -0.400948 0.100000 
1.536480 -0.376169 0.100000 
1.507021 -0.353304 0.100000 
1.476695 -0.330744 0.100000 
1.445488 -0.307332 0.100000 
1.413291 -0.283712 0.100000 
1.379974 -0.260978 0.100000 
1.345099 -0.239857 0.100000 
1.306992 -0.219613 0.100000 
1.263672 -0.199141 0.100000 
1.230099 -0.185600 0.100000 
1.187841 -0.175810 0.100000 
1.131409 -0.174111 0.100000 
1.096163 -0.177653 0.100000 
1.055315 -0.184846 0.100000 
1.008180 -0.196233 0.100000 
1.820512 -0.832567 0.100000 
1.807218 -0.783910 0.100000 
1.794514 -0.742609 0.100000 
1.782361 -0.707834 0.100000 
1.759562 -0.654542 0.100000 
1.738529 -0.617389 0.100000 
1.718966 -0.589732 0.100000 
1.691702 -0.554842 0.100000 
1.665902 -0.523873 0.100000 
1.640387 -0.494327 0.100000 
1.614174 -0.464378 0.100000 
1.587074 -0.434887 0.100000 
1.559097 -0.407386 0.100000 
1.530250 -0.382883 0.100000 
1.500545 -0.360292 0.100000 
1.469993 -0.338004 0.100000 
1.438579 -0.314858 0.100000 
1.406198 -0.291497 0.100000 
1.372721 -0.269014 0.100000 
1.337711 -0.248138 0.100000 
1.299491 -0.228132 0.100000 
1.256076 -0.207896 0.100000 
1.222514 -0.194439 0.100000 
1.180658 -0.184288 0.100000 
1.125406 -0.181340 0.100000 
1.091162 -0.183785 0.100000 
1.051655 -0.189492 0.100000 
1.006248 -0.198949 0.100000 
1.817613 -0.836641 0.100000 
1.804162 -0.788077 0.100000 
1.791305 -0.746868 0.100000 
1.779004 -0.712184 0.100000 
1.755925 -0.659072 0.100000 
1.734630 -0.622096 0.100000 
1.714821 -0.594612 0.100000 
1.687217 -0.559972 0.100000 
1.661103 -0.529250 0.100000 
1.635286 -0.499956 0.100000 
1.608776 -0.470270 0.100000 
1.581387 -0.441049 0.100000 
1.553131 -0.413823 0.100000 
1.524021 -0.389597 0.100000 
1.494070 -0.367281 0.100000 
1.463290 -0.345264 0.100000 
1.431669 -0.322384 0.100000 
1.399105 -0.299282 0.100000 
1.365468 -0.277051 0.100000 
1.330322 -0.256418 0.100000 
1.291989 -0.236651 0.100000 
1.248480 -0.216652 0.100000 
1.214928 -0.203278 0.100000 
1.173475 -0.192766 0.100000 
1.119403 -0.188569 0.100000 
1.086161 -0.189917 0.100000 
1.047995 -0.194139 0.100000 
1.004316 -0.201665 0.100000 
