VARIABLES = "CoordinateX", "CoordinateY", "CoordinateZ"
Zone T="FFD_vol0" I=10 J=2 K=2
DATAPACKING=POINT
1.010000 -0.006907 0.000000 
0.973716 0.118164 0.000000 
0.899672 0.209227 0.000000 
0.763006 0.294371 0.000000 
0.615441 0.330796 0.000000 
0.384559 0.330796 0.000000 
0.236994 0.294371 0.000000 
0.100328 0.209227 0.000000 
0.026284 0.118164 0.000000 
-0.010000 -0.006907 0.000000 
1.010000 -0.046907 0.000000 
0.962798 0.011675 0.000000 
0.913486 0.041629 0.000000 
0.797974 0.119436 0.000000 
0.643930 0.185515 0.000000 
0.356070 0.185515 0.000000 
0.202026 0.119436 0.000000 
0.086514 0.041629 0.000000 
0.037202 0.011675 0.000000 
-0.010000 -0.046907 0.000000 
1.010000 -0.006907 0.100000 
0.973716 0.118164 0.100000 
0.899672 0.209227 0.100000 
0.763006 0.294371 0.100000 
0.615441 0.330796 0.100000 
0.384559 0.330796 0.100000 
0.236994 0.294371 0.100000 
0.100328 0.209227 0.100000 
0.026284 0.118164 0.100000 
-0.010000 -0.006907 0.100000 
1.010000 -0.046907 0.100000 
0.962798 0.011675 0.100000 
0.913486 0.041629 0.100000 
0.797974 0.119436 0.100000 
0.643930 0.185515 0.100000 
0.356070 0.185515 0.100000 
0.202026 0.119436 0.100000 
0.086514 0.041629 0.100000 
0.037202 0.011675 0.100000 
-0.010000 -0.046907 0.100000 
Zone T="embedding_vol" I=28 J=4 K=4
DATAPACKING=POINT
1.010000 -0.006907 0.000000 
0.997873 0.031935 0.000000 
0.985663 0.065469 0.000000 
0.973339 0.094279 0.000000 
0.948238 0.140065 0.000000 
0.922338 0.173965 0.000000 
0.895405 0.200652 0.000000 
0.852785 0.234767 0.000000 
0.807865 0.263266 0.000000 
0.761190 0.286251 0.000000 
0.712765 0.303882 0.000000 
0.660448 0.316555 0.000000 
0.601555 0.324725 0.000000 
0.534880 0.328772 0.000000 
0.465120 0.328772 0.000000 
0.398445 0.324725 0.000000 
0.339552 0.316555 0.000000 
0.287235 0.303882 0.000000 
0.238810 0.286251 0.000000 
0.192135 0.263266 0.000000 
0.147215 0.234767 0.000000 
0.104595 0.200652 0.000000 
0.077662 0.173965 0.000000 
0.051762 0.140065 0.000000 
0.026661 0.094279 0.000000 
0.014337 0.065469 0.000000 
0.002127 0.031935 0.000000 
-0.010000 -0.006907 0.000000 
1.010000 -0.020240 0.000000 
0.996936 0.011648 0.000000 
0.984291 0.039055 0.000000 
0.971967 0.062506 0.000000 
0.947877 0.099634 0.000000 
0.923863 0.127225 0.000000 
0.899124 0.149471 0.000000 
0.859421 0.179550 0.000000 
0.816683 0.206552 0.000000 
0.771310 0.229995 0.000000 
0.723143 0.249413 0.000000 
0.669776 0.264421 0.000000 
0.608246 0.274650 0.000000 
0.537318 0.279796 0.000000 
0.462682 0.279796 0.000000 
0.391754 0.274650 0.000000 
0.330224 0.264421 0.000000 
0.276857 0.249413 0.000000 
0.228690 0.229995 0.000000 
0.183317 0.206552 0.000000 
0.140579 0.179550 0.000000 
0.100876 0.149471 0.000000 
0.076137 0.127225 0.000000 
0.052123 0.099634 0.000000 
0.028033 0.062506 0.000000 
0.015709 0.039055 0.000000 
0.003064 0.011648 0.000000 
-0.010000 -0.020240 0.000000 
1.010000 -0.033573 0.000000 
0.995998 -0.008640 0.000000 
0.982920 0.012641 0.000000 
0.970595 0.030732 0.000000 
0.947515 0.059202 0.000000 
0.925388 0.080484 0.000000 
0.902843 0.098289 0.000000 
0.866057 0.124333 0.000000 
0.825501 0.149838 0.000000 
0.781431 0.173738 0.000000 
0.733520 0.194944 0.000000 
0.679104 0.212287 0.000000 
0.614937 0.224576 0.000000 
0.539756 0.230820 0.000000 
0.460244 0.230820 0.000000 
0.385063 0.224576 0.000000 
0.320896 0.212287 0.000000 
0.266480 0.194944 0.000000 
0.218569 0.173738 0.000000 
0.174499 0.149838 0.000000 
0.133943 0.124333 0.000000 
0.097157 0.098289 0.000000 
0.074612 0.080484 0.000000 
0.052485 0.059202 0.000000 
0.029405 0.030732 0.000000 
0.017080 0.012641 0.000000 
0.004002 -0.008640 0.000000 
-0.010000 -0.033573 0.000000 
1.010000 -0.046907 0.000000 
0.995061 -0.028927 0.000000 
0.981549 -0.013774 0.000000 
0.969222 -0.001042 0.000000 
0.947153 0.018771 0.000000 
0.926913 0.033744 0.000000 
0.906562 0.047108 0.000000 
0.872693 0.069116 0.000000 
0.834319 0.093124 0.000000 
0.791552 0.117481 0.000000 
0.743897 0.140475 0.000000 
0.688432 0.160153 0.000000 
0.621627 0.174502 0.000000 
0.542195 0.181844 0.000000 
0.457805 0.181844 0.000000 
0.378373 0.174502 0.000000 
0.311568 0.160153 0.000000 
0.256103 0.140475 0.000000 
0.208448 0.117481 0.000000 
0.165681 0.093124 0.000000 
0.127307 0.069116 0.000000 
0.093438 0.047108 0.000000 
0.073087 0.033744 0.000000 
0.052847 0.018771 0.000000 
0.030778 -0.001042 0.000000 
0.018451 -0.013774 0.000000 
0.004939 -0.028927 0.000000 
-0.010000 -0.046907 0.000000 
1.010000 -0.006907 0.033333 
0.997873 0.031935 0.033333 
0.985663 0.065469 0.033333 
0.973339 0.094279 0.033333 
0.948238 0.140065 0.033333 
0.922338 0.173965 0.033333 
0.895405 0.200652 0.033333 
0.852785 0.234767 0.033333 
0.807865 0.263266 0.033333 
0.761190 0.286251 0.033333 
0.712765 0.303882 0.033333 
0.660448 0.316555 0.033333 
0.601555 0.324725 0.033333 
0.534880 0.328772 0.033333 
0.465120 0.328772 0.033333 
0.398445 0.324725 0.033333 
0.339552 0.316555 0.033333 
0.287235 0.303882 0.033333 
0.238810 0.286251 0.033333 
0.192135 0.263266 0.033333 
0.147215 0.234767 0.033333 
0.104595 0.200652 0.033333 
0.077662 0.173965 0.033333 
0.051762 0.140065 0.033333 
0.026661 0.094279 0.033333 
0.014337 0.065469 0.033333 
0.002127 0.031935 0.033333 
-0.010000 -0.006907 0.033333 
1.010000 -0.020240 0.033333 
0.996936 0.011648 0.033333 
0.984291 0.039055 0.033333 
0.971967 0.062506 0.033333 
0.947877 0.099634 0.033333 
0.923863 0.127225 0.033333 
0.899124 0.149471 0.033333 
0.859421 0.179550 0.033333 
0.816683 0.206552 0.033333 
0.771310 0.229995 0.033333 
0.723143 0.249413 0.033333 
0.669776 0.264421 0.033333 
0.608246 0.274650 0.033333 
0.537318 0.279796 0.033333 
0.462682 0.279796 0.033333 
0.391754 0.274650 0.033333 
0.330224 0.264421 0.033333 
0.276857 0.249413 0.033333 
0.228690 0.229995 0.033333 
0.183317 0.206552 0.033333 
0.140579 0.179550 0.033333 
0.100876 0.149471 0.033333 
0.076137 0.127225 0.033333 
0.052123 0.099634 0.033333 
0.028033 0.062506 0.033333 
0.015709 0.039055 0.033333 
0.003064 0.011648 0.033333 
-0.010000 -0.020240 0.033333 
1.010000 -0.033573 0.033333 
0.995998 -0.008640 0.033333 
0.982920 0.012641 0.033333 
0.970595 0.030732 0.033333 
0.947515 0.059202 0.033333 
0.925388 0.080484 0.033333 
0.902843 0.098289 0.033333 
0.866057 0.124333 0.033333 
0.825501 0.149838 0.033333 
0.781431 0.173738 0.033333 
0.733520 0.194944 0.033333 
0.679104 0.212287 0.033333 
0.614937 0.224576 0.033333 
0.539756 0.230820 0.033333 
0.460244 0.230820 0.033333 
0.385063 0.224576 0.033333 
0.320896 0.212287 0.033333 
0.266480 0.194944 0.033333 
0.218569 0.173738 0.033333 
0.174499 0.149838 0.033333 
0.133943 0.124333 0.033333 
0.097157 0.098289 0.033333 
0.074612 0.080484 0.033333 
0.052485 0.059202 0.033333 
0.029405 0.030732 0.033333 
0.017080 0.012641 0.033333 
0.004002 -0.008640 0.033333 
-0.010000 -0.033573 0.033333 
1.010000 -0.046907 0.033333 
0.995061 -0.028927 0.033333 
0.981549 -0.013774 0.033333 
0.969222 -0.001042 0.033333 
0.947153 0.018771 0.033333 
0.926913 0.033744 0.033333 
0.906562 0.047108 0.033333 
0.872693 0.069116 0.033333 
0.834319 0.093124 0.033333 
0.791552 0.117481 0.033333 
0.743897 0.140475 0.033333 
0.688432 0.160153 0.033333 
0.621627 0.174502 0.033333 
0.542195 0.181844 0.033333 
0.457805 0.181844 0.033333 
0.378373 0.174502 0.033333 
0.311568 0.160153 0.033333 
0.256103 0.140475 0.033333 
0.208448 0.117481 0.033333 
0.165681 0.093124 0.033333 
0.127307 0.069116 0.033333 
0.093438 0.047108 0.033333 
0.073087 0.033744 0.033333 
0.052847 0.018771 0.033333 
0.030778 -0.001042 0.033333 
0.018451 -0.013774 0.033333 
0.004939 -0.028927 0.033333 
-0.010000 -0.046907 0.033333 
1.010000 -0.006907 0.066667 
0.997873 0.031935 0.066667 
0.985663 0.065469 0.066667 
0.973339 0.094279 0.066667 
0.948238 0.140065 0.066667 
0.922338 0.173965 0.066667 
0.895405 0.200652 0.066667 
0.852785 0.234767 0.066667 
0.807865 0.263266 0.066667 
0.761190 0.286251 0.066667 
0.712765 0.303882 0.066667 
0.660448 0.316555 0.066667 
0.601555 0.324725 0.066667 
0.534880 0.328772 0.066667 
0.465120 0.328772 0.066667 
0.398445 0.324725 0.066667 
0.339552 0.316555 0.066667 
0.287235 0.303882 0.066667 
0.238810 0.286251 0.066667 
0.192135 0.263266 0.066667 
0.147215 0.234767 0.066667 
0.104595 0.200652 0.066667 
0.077662 0.173965 0.066667 
0.051762 0.140065 0.066667 
0.026661 0.094279 0.066667 
0.014337 0.065469 0.066667 
0.002127 0.031935 0.066667 
-0.010000 -0.006907 0.066667 
1.010000 -0.020240 0.066667 
0.996936 0.011648 0.066667 
0.984291 0.039055 0.066667 
0.971967 0.062506 0.066667 
0.947877 0.099634 0.066667 
0.923863 0.127225 0.066667 
0.899124 0.149471 0.066667 
0.859421 0.179550 0.066667 
0.816683 0.206552 0.066667 
0.771310 0.229995 0.066667 
0.723143 0.249413 0.066667 
0.669776 0.264421 0.066667 
0.608246 0.274650 0.066667 
0.537318 0.279796 0.066667 
0.462682 0.279796 0.066667 
0.391754 0.274650 0.066667 
0.330224 0.264421 0.066667 
0.276857 0.249413 0.066667 
0.228690 0.229995 0.066667 
0.183317 0.206552 0.066667 
0.140579 0.179550 0.066667 
0.100876 0.149471 0.066667 
0.076137 0.127225 0.066667 
0.052123 0.099634 0.066667 
0.028033 0.062506 0.066667 
0.015709 0.039055 0.066667 
0.003064 0.011648 0.066667 
-0.010000 -0.020240 0.066667 
1.010000 -0.033573 0.066667 
0.995998 -0.008640 0.066667 
0.982920 0.012641 0.066667 
0.970595 0.030732 0.066667 
0.947515 0.059202 0.066667 
0.925388 0.080484 0.066667 
0.902843 0.098289 0.066667 
0.866057 0.124333 0.066667 
0.825501 0.149838 0.066667 
0.781431 0.173738 0.066667 
0.733520 0.194944 0.066667 
0.679104 0.212287 0.066667 
0.614937 0.224576 0.066667 
0.539756 0.230820 0.066667 
0.460244 0.230820 0.066667 
0.385063 0.224576 0.066667 
0.320896 0.212287 0.066667 
0.266480 0.194944 0.066667 
0.218569 0.173738 0.066667 
0.174499 0.149838 0.066667 
0.133943 0.124333 0.066667 
0.097157 0.098289 0.066667 
0.074612 0.080484 0.066667 
0.052485 0.059202 0.066667 
0.029405 0.030732 0.066667 
0.017080 0.012641 0.066667 
0.004002 -0.008640 0.066667 
-0.010000 -0.033573 0.066667 
1.010000 -0.046907 0.066667 
0.995061 -0.028927 0.066667 
0.981549 -0.013774 0.066667 
0.969222 -0.001042 0.066667 
0.947153 0.018771 0.066667 
0.926913 0.033744 0.066667 
0.906562 0.047108 0.066667 
0.872693 0.069116 0.066667 
0.834319 0.093124 0.066667 
0.791552 0.117481 0.066667 
0.743897 0.140475 0.066667 
0.688432 0.160153 0.066667 
0.621627 0.174502 0.066667 
0.542195 0.181844 0.066667 
0.457805 0.181844 0.066667 
0.378373 0.174502 0.066667 
0.311568 0.160153 0.066667 
0.256103 0.140475 0.066667 
0.208448 0.117481 0.066667 
0.165681 0.093124 0.066667 
0.127307 0.069116 0.066667 
0.093438 0.047108 0.066667 
0.073087 0.033744 0.066667 
0.052847 0.018771 0.066667 
0.030778 -0.001042 0.066667 
0.018451 -0.013774 0.066667 
0.004939 -0.028927 0.066667 
-0.010000 -0.046907 0.066667 
1.010000 -0.006907 0.100000 
0.997873 0.031935 0.100000 
0.985663 0.065469 0.100000 
0.973339 0.094279 0.100000 
0.948238 0.140065 0.100000 
0.922338 0.173965 0.100000 
0.895405 0.200652 0.100000 
0.852785 0.234767 0.100000 
0.807865 0.263266 0.100000 
0.761190 0.286251 0.100000 
0.712765 0.303882 0.100000 
0.660448 0.316555 0.100000 
0.601555 0.324725 0.100000 
0.534880 0.328772 0.100000 
0.465120 0.328772 0.100000 
0.398445 0.324725 0.100000 
0.339552 0.316555 0.100000 
0.287235 0.303882 0.100000 
0.238810 0.286251 0.100000 
0.192135 0.263266 0.100000 
0.147215 0.234767 0.100000 
0.104595 0.200652 0.100000 
0.077662 0.173965 0.100000 
0.051762 0.140065 0.100000 
0.026661 0.094279 0.100000 
0.014337 0.065469 0.100000 
0.002127 0.031935 0.100000 
-0.010000 -0.006907 0.100000 
1.010000 -0.020240 0.100000 
0.996936 0.011648 0.100000 
0.984291 0.039055 0.100000 
0.971967 0.062506 0.100000 
0.947877 0.099634 0.100000 
0.923863 0.127225 0.100000 
0.899124 0.149471 0.100000 
0.859421 0.179550 0.100000 
0.816683 0.206552 0.100000 
0.771310 0.229995 0.100000 
0.723143 0.249413 0.100000 
0.669776 0.264421 0.100000 
0.608246 0.274650 0.100000 
0.537318 0.279796 0.100000 
0.462682 0.279796 0.100000 
0.391754 0.274650 0.100000 
0.330224 0.264421 0.100000 
0.276857 0.249413 0.100000 
0.228690 0.229995 0.100000 
0.183317 0.206552 0.100000 
0.140579 0.179550 0.100000 
0.100876 0.149471 0.100000 
0.076137 0.127225 0.100000 
0.052123 0.099634 0.100000 
0.028033 0.062506 0.100000 
0.015709 0.039055 0.100000 
0.003064 0.011648 0.100000 
-0.010000 -0.020240 0.100000 
1.010000 -0.033573 0.100000 
0.995998 -0.008640 0.100000 
0.982920 0.012641 0.100000 
0.970595 0.030732 0.100000 
0.947515 0.059202 0.100000 
0.925388 0.080484 0.100000 
0.902843 0.098289 0.100000 
0.866057 0.124333 0.100000 
0.825501 0.149838 0.100000 
0.781431 0.173738 0.100000 
0.733520 0.194944 0.100000 
0.679104 0.212287 0.100000 
0.614937 0.224576 0.100000 
0.539756 0.230820 0.100000 
0.460244 0.230820 0.100000 
0.385063 0.224576 0.100000 
0.320896 0.212287 0.100000 
0.266480 0.194944 0.100000 
0.218569 0.173738 0.100000 
0.174499 0.149838 0.100000 
0.133943 0.124333 0.100000 
0.097157 0.098289 0.100000 
0.074612 0.080484 0.100000 
0.052485 0.059202 0.100000 
0.029405 0.030732 0.100000 
0.017080 0.012641 0.100000 
0.004002 -0.008640 0.100000 
-0.010000 -0.033573 0.100000 
1.010000 -0.046907 0.100000 
0.995061 -0.028927 0.100000 
0.981549 -0.013774 0.100000 
0.969222 -0.001042 0.100000 
0.947153 0.018771 0.100000 
0.926913 0.033744 0.100000 
0.906562 0.047108 0.100000 
0.872693 0.069116 0.100000 
0.834319 0.093124 0.100000 
0.791552 0.117481 0.100000 
0.743897 0.140475 0.100000 
0.688432 0.160153 0.100000 
0.621627 0.174502 0.100000 
0.542195 0.181844 0.100000 
0.457805 0.181844 0.100000 
0.378373 0.174502 0.100000 
0.311568 0.160153 0.100000 
0.256103 0.140475 0.100000 
0.208448 0.117481 0.100000 
0.165681 0.093124 0.100000 
0.127307 0.069116 0.100000 
0.093438 0.047108 0.100000 
0.073087 0.033744 0.100000 
0.052847 0.018771 0.100000 
0.030778 -0.001042 0.100000 
0.018451 -0.013774 0.100000 
0.004939 -0.028927 0.100000 
-0.010000 -0.046907 0.100000 
Zone T="FFD_vol1" I=10 J=2 K=2
DATAPACKING=POINT
1.849265 -0.689200 0.000000 
1.808665 -0.573119 0.000000 
1.744859 -0.489751 0.000000 
1.672710 -0.396328 0.000000 
1.592496 -0.313960 0.000000 
1.504311 -0.237859 0.000000 
1.408168 -0.165087 0.000000 
1.300733 -0.112458 0.000000 
1.185877 -0.070245 0.000000 
1.028674 -0.117680 0.000000 
1.840661 -0.701488 0.000000 
1.798622 -0.586251 0.000000 
1.732376 -0.504535 0.000000 
1.657520 -0.413274 0.000000 
1.574673 -0.333402 0.000000 
1.484270 -0.259814 0.000000 
1.386476 -0.189394 0.000000 
1.278069 -0.138891 0.000000 
1.162850 -0.098103 0.000000 
1.022938 -0.125871 0.000000 
1.849265 -0.689200 0.100000 
1.808665 -0.573119 0.100000 
1.744859 -0.489751 0.100000 
1.672710 -0.396328 0.100000 
1.592496 -0.313960 0.100000 
1.504311 -0.237859 0.100000 
1.408168 -0.165087 0.100000 
1.300733 -0.112458 0.100000 
1.185877 -0.070245 0.100000 
1.028674 -0.117680 0.100000 
1.840661 -0.701488 0.100000 
1.798622 -0.586251 0.100000 
1.732376 -0.504535 0.100000 
1.657520 -0.413274 0.100000 
1.574673 -0.333402 0.100000 
1.484270 -0.259814 0.100000 
1.386476 -0.189394 0.100000 
1.278069 -0.138891 0.100000 
1.162850 -0.098103 0.100000 
1.022938 -0.125871 0.100000 
Zone T="embedding_vol" I=28 J=4 K=4
DATAPACKING=POINT
1.849265 -0.689200 0.000000 
1.836048 -0.653167 0.000000 
1.823435 -0.622076 0.000000 
1.811388 -0.595358 0.000000 
1.788833 -0.552765 0.000000 
1.768071 -0.520837 0.000000 
1.748786 -0.495022 0.000000 
1.721923 -0.460240 0.000000 
1.696507 -0.428210 0.000000 
1.671366 -0.398170 0.000000 
1.645525 -0.369457 0.000000 
1.618791 -0.341794 0.000000 
1.591168 -0.315004 0.000000 
1.562658 -0.288923 0.000000 
1.533264 -0.263429 0.000000 
1.502984 -0.238414 0.000000 
1.471800 -0.213890 0.000000 
1.439609 -0.190359 0.000000 
1.406286 -0.168444 0.000000 
1.371398 -0.148473 0.000000 
1.333272 -0.129597 0.000000 
1.289925 -0.110676 0.000000 
1.256267 -0.098301 0.000000 
1.213549 -0.090028 0.000000 
1.155913 -0.090488 0.000000 
1.119671 -0.095439 0.000000 
1.077501 -0.104311 0.000000 
1.028674 -0.117680 0.000000 
1.846397 -0.693296 0.000000 
1.833022 -0.657357 0.000000 
1.820257 -0.626359 0.000000 
1.808063 -0.599733 0.000000 
1.785230 -0.557322 0.000000 
1.764207 -0.525573 0.000000 
1.744678 -0.499933 0.000000 
1.717477 -0.465404 0.000000 
1.691747 -0.433623 0.000000 
1.666307 -0.403838 0.000000 
1.640171 -0.375388 0.000000 
1.613149 -0.347998 0.000000 
1.585250 -0.321486 0.000000 
1.556479 -0.295683 0.000000 
1.526840 -0.270466 0.000000 
1.496336 -0.245723 0.000000 
1.464947 -0.221467 0.000000 
1.432574 -0.198197 0.000000 
1.399093 -0.176534 0.000000 
1.364072 -0.156808 0.000000 
1.325834 -0.138172 0.000000 
1.282394 -0.119488 0.000000 
1.248747 -0.107196 0.000000 
1.206430 -0.098560 0.000000 
1.149964 -0.097761 0.000000 
1.114715 -0.101608 0.000000 
1.073876 -0.108984 0.000000 
1.026762 -0.120410 0.000000 
1.843529 -0.697392 0.000000 
1.829997 -0.661546 0.000000 
1.817080 -0.630641 0.000000 
1.804739 -0.604108 0.000000 
1.781626 -0.561880 0.000000 
1.760342 -0.530309 0.000000 
1.740570 -0.504843 0.000000 
1.713031 -0.470567 0.000000 
1.686988 -0.439037 0.000000 
1.661247 -0.409505 0.000000 
1.634817 -0.381320 0.000000 
1.607508 -0.354202 0.000000 
1.579332 -0.327968 0.000000 
1.550299 -0.302443 0.000000 
1.520416 -0.277502 0.000000 
1.489687 -0.253033 0.000000 
1.458094 -0.229044 0.000000 
1.425539 -0.206034 0.000000 
1.391900 -0.184624 0.000000 
1.356745 -0.165143 0.000000 
1.318396 -0.146747 0.000000 
1.274863 -0.128300 0.000000 
1.241228 -0.116091 0.000000 
1.199310 -0.107091 0.000000 
1.144015 -0.105034 0.000000 
1.109760 -0.107777 0.000000 
1.070251 -0.113657 0.000000 
1.024850 -0.123141 0.000000 
1.840661 -0.701488 0.000000 
1.826972 -0.665736 0.000000 
1.813903 -0.634923 0.000000 
1.801415 -0.608482 0.000000 
1.778023 -0.566437 0.000000 
1.756478 -0.535045 0.000000 
1.736461 -0.509754 0.000000 
1.708585 -0.475731 0.000000 
1.682229 -0.444450 0.000000 
1.656188 -0.415172 0.000000 
1.629463 -0.387251 0.000000 
1.601866 -0.360406 0.000000 
1.573414 -0.334449 0.000000 
1.544120 -0.309202 0.000000 
1.513993 -0.284539 0.000000 
1.483038 -0.260342 0.000000 
1.451241 -0.236620 0.000000 
1.418504 -0.213871 0.000000 
1.384707 -0.192714 0.000000 
1.349418 -0.173478 0.000000 
1.310958 -0.155321 0.000000 
1.267332 -0.137111 0.000000 
1.233708 -0.124986 0.000000 
1.192190 -0.115622 0.000000 
1.138066 -0.112308 0.000000 
1.104805 -0.113946 0.000000 
1.066625 -0.118331 0.000000 
1.022938 -0.125871 0.000000 
1.849265 -0.689200 0.033333 
1.836048 -0.653167 0.033333 
1.823435 -0.622076 0.033333 
1.811388 -0.595358 0.033333 
1.788833 -0.552765 0.033333 
1.768071 -0.520837 0.033333 
1.748786 -0.495022 0.033333 
1.721923 -0.460240 0.033333 
1.696507 -0.428210 0.033333 
1.671366 -0.398170 0.033333 
1.645525 -0.369457 0.033333 
1.618791 -0.341794 0.033333 
1.591168 -0.315004 0.033333 
1.562658 -0.288923 0.033333 
1.533264 -0.263429 0.033333 
1.502984 -0.238414 0.033333 
1.471800 -0.213890 0.033333 
1.439609 -0.190359 0.033333 
1.406286 -0.168444 0.033333 
1.371398 -0.148473 0.033333 
1.333272 -0.129597 0.033333 
1.289925 -0.110676 0.033333 
1.256267 -0.098301 0.033333 
1.213549 -0.090028 0.033333 
1.155913 -0.090488 0.033333 
1.119671 -0.095439 0.033333 
1.077501 -0.104311 0.033333 
1.028674 -0.117680 0.033333 
1.846397 -0.693296 0.033333 
1.833022 -0.657357 0.033333 
1.820257 -0.626359 0.033333 
1.808063 -0.599733 0.033333 
1.785230 -0.557322 0.033333 
1.764207 -0.525573 0.033333 
1.744678 -0.499933 0.033333 
1.717477 -0.465404 0.033333 
1.691747 -0.433623 0.033333 
1.666307 -0.403838 0.033333 
1.640171 -0.375388 0.033333 
1.613149 -0.347998 0.033333 
1.585250 -0.321486 0.033333 
1.556479 -0.295683 0.033333 
1.526840 -0.270466 0.033333 
1.496336 -0.245723 0.033333 
1.464947 -0.221467 0.033333 
1.432574 -0.198197 0.033333 
1.399093 -0.176534 0.033333 
1.364072 -0.156808 0.033333 
1.325834 -0.138172 0.033333 
1.282394 -0.119488 0.033333 
1.248747 -0.107196 0.033333 
1.206430 -0.098560 0.033333 
1.149964 -0.097761 0.033333 
1.114715 -0.101608 0.033333 
1.073876 -0.108984 0.033333 
1.026762 -0.120410 0.033333 
1.843529 -0.697392 0.033333 
1.829997 -0.661546 0.033333 
1.817080 -0.630641 0.033333 
1.804739 -0.604108 0.033333 
1.781626 -0.561880 0.033333 
1.760342 -0.530309 0.033333 
1.740570 -0.504843 0.033333 
1.713031 -0.470567 0.033333 
1.686988 -0.439037 0.033333 
1.661247 -0.409505 0.033333 
1.634817 -0.381320 0.033333 
1.607508 -0.354202 0.033333 
1.579332 -0.327968 0.033333 
1.550299 -0.302443 0.033333 
1.520416 -0.277502 0.033333 
1.489687 -0.253033 0.033333 
1.458094 -0.229044 0.033333 
1.425539 -0.206034 0.033333 
1.391900 -0.184624 0.033333 
1.356745 -0.165143 0.033333 
1.318396 -0.146747 0.033333 
1.274863 -0.128300 0.033333 
1.241228 -0.116091 0.033333 
1.199310 -0.107091 0.033333 
1.144015 -0.105034 0.033333 
1.109760 -0.107777 0.033333 
1.070251 -0.113657 0.033333 
1.024850 -0.123141 0.033333 
1.840661 -0.701488 0.033333 
1.826972 -0.665736 0.033333 
1.813903 -0.634923 0.033333 
1.801415 -0.608482 0.033333 
1.778023 -0.566437 0.033333 
1.756478 -0.535045 0.033333 
1.736461 -0.509754 0.033333 
1.708585 -0.475731 0.033333 
1.682229 -0.444450 0.033333 
1.656188 -0.415172 0.033333 
1.629463 -0.387251 0.033333 
1.601866 -0.360406 0.033333 
1.573414 -0.334449 0.033333 
1.544120 -0.309202 0.033333 
1.513993 -0.284539 0.033333 
1.483038 -0.260342 0.033333 
1.451241 -0.236620 0.033333 
1.418504 -0.213871 0.033333 
1.384707 -0.192714 0.033333 
1.349418 -0.173478 0.033333 
1.310958 -0.155321 0.033333 
1.267332 -0.137111 0.033333 
1.233708 -0.124986 0.033333 
1.192190 -0.115622 0.033333 
1.138066 -0.112308 0.033333 
1.104805 -0.113946 0.033333 
1.066625 -0.118331 0.033333 
1.022938 -0.125871 0.033333 
1.849265 -0.689200 0.066667 
1.836048 -0.653167 0.066667 
1.823435 -0.622076 0.066667 
1.811388 -0.595358 0.066667 
1.788833 -0.552765 0.066667 
1.768071 -0.520837 0.066667 
1.748786 -0.495022 0.066667 
1.721923 -0.460240 0.066667 
1.696507 -0.428210 0.066667 
1.671366 -0.398170 0.066667 
1.645525 -0.369457 0.066667 
1.618791 -0.341794 0.066667 
1.591168 -0.315004 0.066667 
1.562658 -0.288923 0.066667 
1.533264 -0.263429 0.066667 
1.502984 -0.238414 0.066667 
1.471800 -0.213890 0.066667 
1.439609 -0.190359 0.066667 
1.406286 -0.168444 0.066667 
1.371398 -0.148473 0.066667 
1.333272 -0.129597 0.066667 
1.289925 -0.110676 0.066667 
1.256267 -0.098301 0.066667 
1.213549 -0.090028 0.066667 
1.155913 -0.090488 0.066667 
1.119671 -0.095439 0.066667 
1.077501 -0.104311 0.066667 
1.028674 -0.117680 0.066667 
1.846397 -0.693296 0.066667 
1.833022 -0.657357 0.066667 
1.820257 -0.626359 0.066667 
1.808063 -0.599733 0.066667 
1.785230 -0.557322 0.066667 
1.764207 -0.525573 0.066667 
1.744678 -0.499933 0.066667 
1.717477 -0.465404 0.066667 
1.691747 -0.433623 0.066667 
1.666307 -0.403838 0.066667 
1.640171 -0.375388 0.066667 
1.613149 -0.347998 0.066667 
1.585250 -0.321486 0.066667 
1.556479 -0.295683 0.066667 
1.526840 -0.270466 0.066667 
1.496336 -0.245723 0.066667 
1.464947 -0.221467 0.066667 
1.432574 -0.198197 0.066667 
1.399093 -0.176534 0.066667 
1.364072 -0.156808 0.066667 
1.325834 -0.138172 0.066667 
1.282394 -0.119488 0.066667 
1.248747 -0.107196 0.066667 
1.206430 -0.098560 0.066667 
1.149964 -0.097761 0.066667 
1.114715 -0.101608 0.066667 
1.073876 -0.108984 0.066667 
1.026762 -0.120410 0.066667 
1.843529 -0.697392 0.066667 
1.829997 -0.661546 0.066667 
1.817080 -0.630641 0.066667 
1.804739 -0.604108 0.066667 
1.781626 -0.561880 0.066667 
1.760342 -0.530309 0.066667 
1.740570 -0.504843 0.066667 
1.713031 -0.470567 0.066667 
1.686988 -0.439037 0.066667 
1.661247 -0.409505 0.066667 
1.634817 -0.381320 0.066667 
1.607508 -0.354202 0.066667 
1.579332 -0.327968 0.066667 
1.550299 -0.302443 0.066667 
1.520416 -0.277502 0.066667 
1.489687 -0.253033 0.066667 
1.458094 -0.229044 0.066667 
1.425539 -0.206034 0.066667 
1.391900 -0.184624 0.066667 
1.356745 -0.165143 0.066667 
1.318396 -0.146747 0.066667 
1.274863 -0.128300 0.066667 
1.241228 -0.116091 0.066667 
1.199310 -0.107091 0.066667 
1.144015 -0.105034 0.066667 
1.109760 -0.107777 0.066667 
1.070251 -0.113657 0.066667 
1.024850 -0.123141 0.066667 
1.840661 -0.701488 0.066667 
1.826972 -0.665736 0.066667 
1.813903 -0.634923 0.066667 
1.801415 -0.608482 0.066667 
1.778023 -0.566437 0.066667 
1.756478 -0.535045 0.066667 
1.736461 -0.509754 0.066667 
1.708585 -0.475731 0.066667 
1.682229 -0.444450 0.066667 
1.656188 -0.415172 0.066667 
1.629463 -0.387251 0.066667 
1.601866 -0.360406 0.066667 
1.573414 -0.334449 0.066667 
1.544120 -0.309202 0.066667 
1.513993 -0.284539 0.066667 
1.483038 -0.260342 0.066667 
1.451241 -0.236620 0.066667 
1.418504 -0.213871 0.066667 
1.384707 -0.192714 0.066667 
1.349418 -0.173478 0.066667 
1.310958 -0.155321 0.066667 
1.267332 -0.137111 0.066667 
1.233708 -0.124986 0.066667 
1.192190 -0.115622 0.066667 
1.138066 -0.112308 0.066667 
1.104805 -0.113946 0.066667 
1.066625 -0.118331 0.066667 
1.022938 -0.125871 0.066667 
1.849265 -0.689200 0.100000 
1.836048 -0.653167 0.100000 
1.823435 -0.622076 0.100000 
1.811388 -0.595358 0.100000 
1.788833 -0.552765 0.100000 
1.768071 -0.520837 0.100000 
1.748786 -0.495022 0.100000 
1.721923 -0.460240 0.100000 
1.696507 -0.428210 0.100000 
1.671366 -0.398170 0.100000 
1.645525 -0.369457 0.100000 
1.618791 -0.341794 0.100000 
1.591168 -0.315004 0.100000 
1.562658 -0.288923 0.100000 
1.533264 -0.263429 0.100000 
1.502984 -0.238414 0.100000 
1.471800 -0.213890 0.100000 
1.439609 -0.190359 0.100000 
1.406286 -0.168444 0.100000 
1.371398 -0.148473 0.100000 
1.333272 -0.129597 0.100000 
1.289925 -0.110676 0.100000 
1.256267 -0.098301 0.100000 
1.213549 -0.090028 0.100000 
1.155913 -0.090488 0.100000 
1.119671 -0.095439 0.100000 
1.077501 -0.104311 0.100000 
1.028674 -0.117680 0.100000 
1.846397 -0.693296 0.100000 
1.833022 -0.657357 0.100000 
1.820257 -0.626359 0.100000 
1.808063 -0.599733 0.100000 
1.785230 -0.557322 0.100000 
1.764207 -0.525573 0.100000 
1.744678 -0.499933 0.100000 
1.717477 -0.465404 0.100000 
1.691747 -0.433623 0.100000 
1.666307 -0.403838 0.100000 
1.640171 -0.375388 0.100000 
1.613149 -0.347998 0.100000 
1.585250 -0.321486 0.100000 
1.556479 -0.295683 0.100000 
1.526840 -0.270466 0.100000 
1.496336 -0.245723 0.100000 
1.464947 -0.221467 0.100000 
1.432574 -0.198197 0.100000 
1.399093 -0.176534 0.100000 
1.364072 -0.156808 0.100000 
1.325834 -0.138172 0.100000 
1.282394 -0.119488 0.100000 
1.248747 -0.107196 0.100000 
1.206430 -0.098560 0.100000 
1.149964 -0.097761 0.100000 
1.114715 -0.101608 0.100000 
1.073876 -0.108984 0.100000 
1.026762 -0.120410 0.100000 
1.843529 -0.697392 0.100000 
1.829997 -0.661546 0.100000 
1.817080 -0.630641 0.100000 
1.804739 -0.604108 0.100000 
1.781626 -0.561880 0.100000 
1.760342 -0.530309 0.100000 
1.740570 -0.504843 0.100000 
1.713031 -0.470567 0.100000 
1.686988 -0.439037 0.100000 
1.661247 -0.409505 0.100000 
1.634817 -0.381320 0.100000 
1.607508 -0.354202 0.100000 
1.579332 -0.327968 0.100000 
1.550299 -0.302443 0.100000 
1.520416 -0.277502 0.100000 
1.489687 -0.253033 0.100000 
1.458094 -0.229044 0.100000 
1.425539 -0.206034 0.100000 
1.391900 -0.184624 0.100000 
1.356745 -0.165143 0.100000 
1.318396 -0.146747 0.100000 
1.274863 -0.128300 0.100000 
1.241228 -0.116091 0.100000 
1.199310 -0.107091 0.100000 
1.144015 -0.105034 0.100000 
1.109760 -0.107777 0.100000 
1.070251 -0.113657 0.100000 
1.024850 -0.123141 0.100000 
1.840661 -0.701488 0.100000 
1.826972 -0.665736 0.100000 
1.813903 -0.634923 0.100000 
1.801415 -0.608482 0.100000 
1.778023 -0.566437 0.100000 
1.756478 -0.535045 0.100000 
1.736461 -0.509754 0.100000 
1.708585 -0.475731 0.100000 
1.682229 -0.444450 0.100000 
1.656188 -0.415172 0.100000 
1.629463 -0.387251 0.100000 
1.601866 -0.360406 0.100000 
1.573414 -0.334449 0.100000 
1.544120 -0.309202 0.100000 
1.513993 -0.284539 0.100000 
1.483038 -0.260342 0.100000 
1.451241 -0.236620 0.100000 
1.418504 -0.213871 0.100000 
1.384707 -0.192714 0.100000 
1.349418 -0.173478 0.100000 
1.310958 -0.155321 0.100000 
1.267332 -0.137111 0.100000 
1.233708 -0.124986 0.100000 
1.192190 -0.115622 0.100000 
1.138066 -0.112308 0.100000 
1.104805 -0.113946 0.100000 
1.066625 -0.118331 0.100000 
1.022938 -0.125871 0.100000 
