VARIABLES = "CoordinateX", "CoordinateY", "CoordinateZ"
Zone T="FFD_vol0" I=10 J=2 K=2
DATAPACKING=POINT
1.010000 -0.057455 0.000000 
0.973716 0.178703 0.000000 
0.899672 0.272596 0.000000 
0.763006 0.343527 0.000000 
0.615441 0.354901 0.000000 
0.384559 0.354901 0.000000 
0.236994 0.343527 0.000000 
0.100328 0.272596 0.000000 
0.026284 0.178703 0.000000 
-0.010000 -0.057455 0.000000 
1.010000 -0.097455 0.000000 
0.962798 0.024562 0.000000 
0.913486 0.047106 0.000000 
0.797974 0.112796 0.000000 
0.643930 0.146748 0.000000 
0.356070 0.146748 0.000000 
0.202026 0.112796 0.000000 
0.086514 0.047106 0.000000 
0.037202 0.024562 0.000000 
-0.010000 -0.097455 0.000000 
1.010000 -0.057455 0.100000 
0.973716 0.178703 0.100000 
0.899672 0.272596 0.100000 
0.763006 0.343527 0.100000 
0.615441 0.354901 0.100000 
0.384559 0.354901 0.100000 
0.236994 0.343527 0.100000 
0.100328 0.272596 0.100000 
0.026284 0.178703 0.100000 
-0.010000 -0.057455 0.100000 
1.010000 -0.097455 0.100000 
0.962798 0.024562 0.100000 
0.913486 0.047106 0.100000 
0.797974 0.112796 0.100000 
0.643930 0.146748 0.100000 
0.356070 0.146748 0.100000 
0.202026 0.112796 0.100000 
0.086514 0.047106 0.100000 
0.037202 0.024562 0.100000 
-0.010000 -0.097455 0.100000 
Zone T="embedding_vol" I=28 J=4 K=4
DATAPACKING=POINT
1.010000 -0.057455 0.000000 
0.997873 0.014500 0.000000 
0.985663 0.073901 0.000000 
0.973339 0.122209 0.000000 
0.948238 0.191392 0.000000 
0.922338 0.233740 0.000000 
0.895405 0.260945 0.000000 
0.852785 0.292420 0.000000 
0.807865 0.316511 0.000000 
0.761190 0.333601 0.000000 
0.712765 0.344307 0.000000 
0.660448 0.350180 0.000000 
0.601555 0.353005 0.000000 
0.534880 0.354269 0.000000 
0.465120 0.354269 0.000000 
0.398445 0.353005 0.000000 
0.339552 0.350180 0.000000 
0.287235 0.344307 0.000000 
0.238810 0.333601 0.000000 
0.192135 0.316511 0.000000 
0.147215 0.292420 0.000000 
0.104595 0.260945 0.000000 
0.077662 0.233740 0.000000 
0.051762 0.191392 0.000000 
0.026661 0.122209 0.000000 
0.014337 0.073901 0.000000 
0.002127 0.014500 0.000000 
-0.010000 -0.057455 0.000000 
1.010000 -0.070788 0.000000 
0.996936 -0.010575 0.000000 
0.984291 0.038853 0.000000 
0.971967 0.078788 0.000000 
0.947877 0.135350 0.000000 
0.923863 0.169452 0.000000 
0.899124 0.191436 0.000000 
0.859421 0.218407 0.000000 
0.816683 0.240850 0.000000 
0.771310 0.258236 0.000000 
0.723143 0.270317 0.000000 
0.669776 0.277973 0.000000 
0.608246 0.282367 0.000000 
0.537318 0.284467 0.000000 
0.462682 0.284467 0.000000 
0.391754 0.282367 0.000000 
0.330224 0.277973 0.000000 
0.276857 0.270317 0.000000 
0.228690 0.258236 0.000000 
0.183317 0.240850 0.000000 
0.140579 0.218407 0.000000 
0.100876 0.191436 0.000000 
0.076137 0.169452 0.000000 
0.052123 0.135350 0.000000 
0.028033 0.078788 0.000000 
0.015709 0.038853 0.000000 
0.003064 -0.010575 0.000000 
-0.010000 -0.070788 0.000000 
1.010000 -0.084121 0.000000 
0.995998 -0.035650 0.000000 
0.982920 0.003805 0.000000 
0.970595 0.035367 0.000000 
0.947515 0.079307 0.000000 
0.925388 0.105164 0.000000 
0.902843 0.121927 0.000000 
0.866057 0.144394 0.000000 
0.825501 0.165189 0.000000 
0.781431 0.182871 0.000000 
0.733520 0.196327 0.000000 
0.679104 0.205766 0.000000 
0.614937 0.211728 0.000000 
0.539756 0.214664 0.000000 
0.460244 0.214664 0.000000 
0.385063 0.211728 0.000000 
0.320896 0.205766 0.000000 
0.266480 0.196327 0.000000 
0.218569 0.182871 0.000000 
0.174499 0.165189 0.000000 
0.133943 0.144394 0.000000 
0.097157 0.121927 0.000000 
0.074612 0.105164 0.000000 
0.052485 0.079307 0.000000 
0.029405 0.035367 0.000000 
0.017080 0.003805 0.000000 
0.004002 -0.035650 0.000000 
-0.010000 -0.084121 0.000000 
1.010000 -0.097455 0.000000 
0.995061 -0.060725 0.000000 
0.981549 -0.031243 0.000000 
0.969222 -0.008054 0.000000 
0.947153 0.023265 0.000000 
0.926913 0.040876 0.000000 
0.906562 0.052419 0.000000 
0.872693 0.070381 0.000000 
0.834319 0.089529 0.000000 
0.791552 0.107506 0.000000 
0.743897 0.122336 0.000000 
0.688432 0.133558 0.000000 
0.621627 0.141090 0.000000 
0.542195 0.144862 0.000000 
0.457805 0.144862 0.000000 
0.378373 0.141090 0.000000 
0.311568 0.133558 0.000000 
0.256103 0.122336 0.000000 
0.208448 0.107506 0.000000 
0.165681 0.089529 0.000000 
0.127307 0.070381 0.000000 
0.093438 0.052419 0.000000 
0.073087 0.040876 0.000000 
0.052847 0.023265 0.000000 
0.030778 -0.008054 0.000000 
0.018451 -0.031243 0.000000 
0.004939 -0.060725 0.000000 
-0.010000 -0.097455 0.000000 
1.010000 -0.057455 0.033333 
0.997873 0.014500 0.033333 
0.985663 0.073901 0.033333 
0.973339 0.122209 0.033333 
0.948238 0.191392 0.033333 
0.922338 0.233740 0.033333 
0.895405 0.260945 0.033333 
0.852785 0.292420 0.033333 
0.807865 0.316511 0.033333 
0.761190 0.333601 0.033333 
0.712765 0.344307 0.033333 
0.660448 0.350180 0.033333 
0.601555 0.353005 0.033333 
0.534880 0.354269 0.033333 
0.465120 0.354269 0.033333 
0.398445 0.353005 0.033333 
0.339552 0.350180 0.033333 
0.287235 0.344307 0.033333 
0.238810 0.333601 0.033333 
0.192135 0.316511 0.033333 
0.147215 0.292420 0.033333 
0.104595 0.260945 0.033333 
0.077662 0.233740 0.033333 
0.051762 0.191392 0.033333 
0.026661 0.122209 0.033333 
0.014337 0.073901 0.033333 
0.002127 0.014500 0.033333 
-0.010000 -0.057455 0.033333 
1.010000 -0.070788 0.033333 
0.996936 -0.010575 0.033333 
0.984291 0.038853 0.033333 
0.971967 0.078788 0.033333 
0.947877 0.135350 0.033333 
0.923863 0.169452 0.033333 
0.899124 0.191436 0.033333 
0.859421 0.218407 0.033333 
0.816683 0.240850 0.033333 
0.771310 0.258236 0.033333 
0.723143 0.270317 0.033333 
0.669776 0.277973 0.033333 
0.608246 0.282367 0.033333 
0.537318 0.284467 0.033333 
0.462682 0.284467 0.033333 
0.391754 0.282367 0.033333 
0.330224 0.277973 0.033333 
0.276857 0.270317 0.033333 
0.228690 0.258236 0.033333 
0.183317 0.240850 0.033333 
0.140579 0.218407 0.033333 
0.100876 0.191436 0.033333 
0.076137 0.169452 0.033333 
0.052123 0.135350 0.033333 
0.028033 0.078788 0.033333 
0.015709 0.038853 0.033333 
0.003064 -0.010575 0.033333 
-0.010000 -0.070788 0.033333 
1.010000 -0.084121 0.033333 
0.995998 -0.035650 0.033333 
0.982920 0.003805 0.033333 
0.970595 0.035367 0.033333 
0.947515 0.079307 0.033333 
0.925388 0.105164 0.033333 
0.902843 0.121927 0.033333 
0.866057 0.144394 0.033333 
0.825501 0.165189 0.033333 
0.781431 0.182871 0.033333 
0.733520 0.196327 0.033333 
0.679104 0.205766 0.033333 
0.614937 0.211728 0.033333 
0.539756 0.214664 0.033333 
0.460244 0.214664 0.033333 
0.385063 0.211728 0.033333 
0.320896 0.205766 0.033333 
0.266480 0.196327 0.033333 
0.218569 0.182871 0.033333 
0.174499 0.165189 0.033333 
0.133943 0.144394 0.033333 
0.097157 0.121927 0.033333 
0.074612 0.105164 0.033333 
0.052485 0.079307 0.033333 
0.029405 0.035367 0.033333 
0.017080 0.003805 0.033333 
0.004002 -0.035650 0.033333 
-0.010000 -0.084121 0.033333 
1.010000 -0.097455 0.033333 
0.995061 -0.060725 0.033333 
0.981549 -0.031243 0.033333 
0.969222 -0.008054 0.033333 
0.947153 0.023265 0.033333 
0.926913 0.040876 0.033333 
0.906562 0.052419 0.033333 
0.872693 0.070381 0.033333 
0.834319 0.089529 0.033333 
0.791552 0.107506 0.033333 
0.743897 0.122336 0.033333 
0.688432 0.133558 0.033333 
0.621627 0.141090 0.033333 
0.542195 0.144862 0.033333 
0.457805 0.144862 0.033333 
0.378373 0.141090 0.033333 
0.311568 0.133558 0.033333 
0.256103 0.122336 0.033333 
0.208448 0.107506 0.033333 
0.165681 0.089529 0.033333 
0.127307 0.070381 0.033333 
0.093438 0.052419 0.033333 
0.073087 0.040876 0.033333 
0.052847 0.023265 0.033333 
0.030778 -0.008054 0.033333 
0.018451 -0.031243 0.033333 
0.004939 -0.060725 0.033333 
-0.010000 -0.097455 0.033333 
1.010000 -0.057455 0.066667 
0.997873 0.014500 0.066667 
0.985663 0.073901 0.066667 
0.973339 0.122209 0.066667 
0.948238 0.191392 0.066667 
0.922338 0.233740 0.066667 
0.895405 0.260945 0.066667 
0.852785 0.292420 0.066667 
0.807865 0.316511 0.066667 
0.761190 0.333601 0.066667 
0.712765 0.344307 0.066667 
0.660448 0.350180 0.066667 
0.601555 0.353005 0.066667 
0.534880 0.354269 0.066667 
0.465120 0.354269 0.066667 
0.398445 0.353005 0.066667 
0.339552 0.350180 0.066667 
0.287235 0.344307 0.066667 
0.238810 0.333601 0.066667 
0.192135 0.316511 0.066667 
0.147215 0.292420 0.066667 
0.104595 0.260945 0.066667 
0.077662 0.233740 0.066667 
0.051762 0.191392 0.066667 
0.026661 0.122209 0.066667 
0.014337 0.073901 0.066667 
0.002127 0.014500 0.066667 
-0.010000 -0.057455 0.066667 
1.010000 -0.070788 0.066667 
0.996936 -0.010575 0.066667 
0.984291 0.038853 0.066667 
0.971967 0.078788 0.066667 
0.947877 0.135350 0.066667 
0.923863 0.169452 0.066667 
0.899124 0.191436 0.066667 
0.859421 0.218407 0.066667 
0.816683 0.240850 0.066667 
0.771310 0.258236 0.066667 
0.723143 0.270317 0.066667 
0.669776 0.277973 0.066667 
0.608246 0.282367 0.066667 
0.537318 0.284467 0.066667 
0.462682 0.284467 0.066667 
0.391754 0.282367 0.066667 
0.330224 0.277973 0.066667 
0.276857 0.270317 0.066667 
0.228690 0.258236 0.066667 
0.183317 0.240850 0.066667 
0.140579 0.218407 0.066667 
0.100876 0.191436 0.066667 
0.076137 0.169452 0.066667 
0.052123 0.135350 0.066667 
0.028033 0.078788 0.066667 
0.015709 0.038853 0.066667 
0.003064 -0.010575 0.066667 
-0.010000 -0.070788 0.066667 
1.010000 -0.084121 0.066667 
0.995998 -0.035650 0.066667 
0.982920 0.003805 0.066667 
0.970595 0.035367 0.066667 
0.947515 0.079307 0.066667 
0.925388 0.105164 0.066667 
0.902843 0.121927 0.066667 
0.866057 0.144394 0.066667 
0.825501 0.165189 0.066667 
0.781431 0.182871 0.066667 
0.733520 0.196327 0.066667 
0.679104 0.205766 0.066667 
0.614937 0.211728 0.066667 
0.539756 0.214664 0.066667 
0.460244 0.214664 0.066667 
0.385063 0.211728 0.066667 
0.320896 0.205766 0.066667 
0.266480 0.196327 0.066667 
0.218569 0.182871 0.066667 
0.174499 0.165189 0.066667 
0.133943 0.144394 0.066667 
0.097157 0.121927 0.066667 
0.074612 0.105164 0.066667 
0.052485 0.079307 0.066667 
0.029405 0.035367 0.066667 
0.017080 0.003805 0.066667 
0.004002 -0.035650 0.066667 
-0.010000 -0.084121 0.066667 
1.010000 -0.097455 0.066667 
0.995061 -0.060725 0.066667 
0.981549 -0.031243 0.066667 
0.969222 -0.008054 0.066667 
0.947153 0.023265 0.066667 
0.926913 0.040876 0.066667 
0.906562 0.052419 0.066667 
0.872693 0.070381 0.066667 
0.834319 0.089529 0.066667 
0.791552 0.107506 0.066667 
0.743897 0.122336 0.066667 
0.688432 0.133558 0.066667 
0.621627 0.141090 0.066667 
0.542195 0.144862 0.066667 
0.457805 0.144862 0.066667 
0.378373 0.141090 0.066667 
0.311568 0.133558 0.066667 
0.256103 0.122336 0.066667 
0.208448 0.107506 0.066667 
0.165681 0.089529 0.066667 
0.127307 0.070381 0.066667 
0.093438 0.052419 0.066667 
0.073087 0.040876 0.066667 
0.052847 0.023265 0.066667 
0.030778 -0.008054 0.066667 
0.018451 -0.031243 0.066667 
0.004939 -0.060725 0.066667 
-0.010000 -0.097455 0.066667 
1.010000 -0.057455 0.100000 
0.997873 0.014500 0.100000 
0.985663 0.073901 0.100000 
0.973339 0.122209 0.100000 
0.948238 0.191392 0.100000 
0.922338 0.233740 0.100000 
0.895405 0.260945 0.100000 
0.852785 0.292420 0.100000 
0.807865 0.316511 0.100000 
0.761190 0.333601 0.100000 
0.712765 0.344307 0.100000 
0.660448 0.350180 0.100000 
0.601555 0.353005 0.100000 
0.534880 0.354269 0.100000 
0.465120 0.354269 0.100000 
0.398445 0.353005 0.100000 
0.339552 0.350180 0.100000 
0.287235 0.344307 0.100000 
0.238810 0.333601 0.100000 
0.192135 0.316511 0.100000 
0.147215 0.292420 0.100000 
0.104595 0.260945 0.100000 
0.077662 0.233740 0.100000 
0.051762 0.191392 0.100000 
0.026661 0.122209 0.100000 
0.014337 0.073901 0.100000 
0.002127 0.014500 0.100000 
-0.010000 -0.057455 0.100000 
1.010000 -0.070788 0.100000 
0.996936 -0.010575 0.100000 
0.984291 0.038853 0.100000 
0.971967 0.078788 0.100000 
0.947877 0.135350 0.100000 
0.923863 0.169452 0.100000 
0.899124 0.191436 0.100000 
0.859421 0.218407 0.100000 
0.816683 0.240850 0.100000 
0.771310 0.258236 0.100000 
0.723143 0.270317 0.100000 
0.669776 0.277973 0.100000 
0.608246 0.282367 0.100000 
0.537318 0.284467 0.100000 
0.462682 0.284467 0.100000 
0.391754 0.282367 0.100000 
0.330224 0.277973 0.100000 
0.276857 0.270317 0.100000 
0.228690 0.258236 0.100000 
0.183317 0.240850 0.100000 
0.140579 0.218407 0.100000 
0.100876 0.191436 0.100000 
0.076137 0.169452 0.100000 
0.052123 0.135350 0.100000 
0.028033 0.078788 0.100000 
0.015709 0.038853 0.100000 
0.003064 -0.010575 0.100000 
-0.010000 -0.070788 0.100000 
1.010000 -0.084121 0.100000 
0.995998 -0.035650 0.100000 
0.982920 0.003805 0.100000 
0.970595 0.035367 0.100000 
0.947515 0.079307 0.100000 
0.925388 0.105164 0.100000 
0.902843 0.121927 0.100000 
0.866057 0.144394 0.100000 
0.825501 0.165189 0.100000 
0.781431 0.182871 0.100000 
0.733520 0.196327 0.100000 
0.679104 0.205766 0.100000 
0.614937 0.211728 0.100000 
0.539756 0.214664 0.100000 
0.460244 0.214664 0.100000 
0.385063 0.211728 0.100000 
0.320896 0.205766 0.100000 
0.266480 0.196327 0.100000 
0.218569 0.182871 0.100000 
0.174499 0.165189 0.100000 
0.133943 0.144394 0.100000 
0.097157 0.121927 0.100000 
0.074612 0.105164 0.100000 
0.052485 0.079307 0.100000 
0.029405 0.035367 0.100000 
0.017080 0.003805 0.100000 
0.004002 -0.035650 0.100000 
-0.010000 -0.084121 0.100000 
1.010000 -0.097455 0.100000 
0.995061 -0.060725 0.100000 
0.981549 -0.031243 0.100000 
0.969222 -0.008054 0.100000 
0.947153 0.023265 0.100000 
0.926913 0.040876 0.100000 
0.906562 0.052419 0.100000 
0.872693 0.070381 0.100000 
0.834319 0.089529 0.100000 
0.791552 0.107506 0.100000 
0.743897 0.122336 0.100000 
0.688432 0.133558 0.100000 
0.621627 0.141090 0.100000 
0.542195 0.144862 0.100000 
0.457805 0.144862 0.100000 
0.378373 0.141090 0.100000 
0.311568 0.133558 0.100000 
0.256103 0.122336 0.100000 
0.208448 0.107506 0.100000 
0.165681 0.089529 0.100000 
0.127307 0.070381 0.100000 
0.093438 0.052419 0.100000 
0.073087 0.040876 0.100000 
0.052847 0.023265 0.100000 
0.030778 -0.008054 0.100000 
0.018451 -0.031243 0.100000 
0.004939 -0.060725 0.100000 
-0.010000 -0.097455 0.100000 
Zone T="FFD_vol1" I=10 J=2 K=2
DATAPACKING=POINT
1.866398 -0.703417 0.000000 
1.826122 -0.547581 0.000000 
1.762503 -0.458892 0.000000 
1.690540 -0.386067 0.000000 
1.610497 -0.317213 0.000000 
1.522472 -0.249378 0.000000 
1.426479 -0.127108 0.000000 
1.319158 -0.037558 0.000000 
1.204405 -0.009707 0.000000 
1.047016 -0.130163 0.000000 
1.857768 -0.715686 0.000000 
1.816050 -0.560691 0.000000 
1.749989 -0.473650 0.000000 
1.675314 -0.402981 0.000000 
1.592633 -0.336617 0.000000 
1.502385 -0.271291 0.000000 
1.404735 -0.151369 0.000000 
1.296439 -0.063943 0.000000 
1.181320 -0.037516 0.000000 
1.041263 -0.138343 0.000000 
1.866398 -0.703417 0.100000 
1.826122 -0.547581 0.100000 
1.762503 -0.458892 0.100000 
1.690540 -0.386067 0.100000 
1.610497 -0.317213 0.100000 
1.522472 -0.249378 0.100000 
1.426479 -0.127108 0.100000 
1.319158 -0.037558 0.100000 
1.204405 -0.009707 0.100000 
1.047016 -0.130163 0.100000 
1.857768 -0.715686 0.100000 
1.816050 -0.560691 0.100000 
1.749989 -0.473650 0.100000 
1.675314 -0.402981 0.100000 
1.592633 -0.336617 0.100000 
1.502385 -0.271291 0.100000 
1.404735 -0.151369 0.100000 
1.296439 -0.063943 0.100000 
1.181320 -0.037516 0.100000 
1.041263 -0.138343 0.100000 
Zone T="embedding_vol" I=28 J=4 K=4
DATAPACKING=POINT
1.866398 -0.703417 0.000000 
1.853280 -0.655461 0.000000 
1.840752 -0.614930 0.000000 
1.828776 -0.580987 0.000000 
1.806330 -0.529527 0.000000 
1.785642 -0.494400 0.000000 
1.766414 -0.468927 0.000000 
1.739624 -0.437615 0.000000 
1.714273 -0.410910 0.000000 
1.689193 -0.386729 0.000000 
1.663410 -0.363318 0.000000 
1.636734 -0.340239 0.000000 
1.609167 -0.317383 0.000000 
1.580712 -0.294316 0.000000 
1.551371 -0.269308 0.000000 
1.521144 -0.240305 0.000000 
1.490011 -0.206135 0.000000 
1.457868 -0.169144 0.000000 
1.424591 -0.132561 0.000000 
1.389746 -0.099169 0.000000 
1.351661 -0.069969 0.000000 
1.308357 -0.045520 0.000000 
1.274728 -0.033495 0.000000 
1.232024 -0.032154 0.000000 
1.174372 -0.049819 0.000000 
1.138105 -0.068380 0.000000 
1.095897 -0.094815 0.000000 
1.047016 -0.130163 0.000000 
1.863522 -0.707506 0.000000 
1.850246 -0.659644 0.000000 
1.837565 -0.619206 0.000000 
1.825442 -0.585355 0.000000 
1.802716 -0.534076 0.000000 
1.781768 -0.499128 0.000000 
1.762295 -0.473829 0.000000 
1.735167 -0.442769 0.000000 
1.709502 -0.416313 0.000000 
1.684122 -0.392386 0.000000 
1.658044 -0.369238 0.000000 
1.631079 -0.346432 0.000000 
1.603235 -0.323852 0.000000 
1.574518 -0.301063 0.000000 
1.544932 -0.276331 0.000000 
1.514480 -0.247601 0.000000 
1.483142 -0.213697 0.000000 
1.450817 -0.176966 0.000000 
1.417381 -0.140636 0.000000 
1.382402 -0.107488 0.000000 
1.344205 -0.078528 0.000000 
1.300807 -0.054316 0.000000 
1.267189 -0.042375 0.000000 
1.224886 -0.040670 0.000000 
1.168408 -0.057079 0.000000 
1.133136 -0.074539 0.000000 
1.092262 -0.099481 0.000000 
1.045099 -0.132890 0.000000 
1.860645 -0.711596 0.000000 
1.847212 -0.663828 0.000000 
1.834379 -0.623481 0.000000 
1.822109 -0.589722 0.000000 
1.799103 -0.538626 0.000000 
1.777894 -0.503856 0.000000 
1.758177 -0.478730 0.000000 
1.730710 -0.447924 0.000000 
1.704732 -0.421716 0.000000 
1.679051 -0.398042 0.000000 
1.652678 -0.375159 0.000000 
1.625425 -0.352624 0.000000 
1.597303 -0.330321 0.000000 
1.568325 -0.307809 0.000000 
1.538494 -0.283354 0.000000 
1.507816 -0.254896 0.000000 
1.476273 -0.221259 0.000000 
1.443765 -0.184789 0.000000 
1.410171 -0.148711 0.000000 
1.375058 -0.115808 0.000000 
1.336749 -0.087087 0.000000 
1.293258 -0.063112 0.000000 
1.259650 -0.051254 0.000000 
1.217748 -0.049186 0.000000 
1.162443 -0.064340 0.000000 
1.128168 -0.080697 0.000000 
1.088627 -0.104146 0.000000 
1.043181 -0.135616 0.000000 
1.857768 -0.715686 0.000000 
1.844178 -0.668011 0.000000 
1.831193 -0.627757 0.000000 
1.818775 -0.594090 0.000000 
1.795490 -0.543175 0.000000 
1.774019 -0.508584 0.000000 
1.754058 -0.483632 0.000000 
1.726253 -0.453078 0.000000 
1.699961 -0.427120 0.000000 
1.673979 -0.403699 0.000000 
1.647311 -0.381079 0.000000 
1.619770 -0.358816 0.000000 
1.591372 -0.336790 0.000000 
1.562131 -0.314556 0.000000 
1.532055 -0.290377 0.000000 
1.501151 -0.262192 0.000000 
1.469404 -0.228822 0.000000 
1.436714 -0.192611 0.000000 
1.402961 -0.156785 0.000000 
1.367713 -0.124127 0.000000 
1.329293 -0.095646 0.000000 
1.285708 -0.071908 0.000000 
1.252112 -0.060133 0.000000 
1.210610 -0.057703 0.000000 
1.156479 -0.071601 0.000000 
1.123200 -0.086856 0.000000 
1.084992 -0.108812 0.000000 
1.041263 -0.138343 0.000000 
1.866398 -0.703417 0.033333 
1.853280 -0.655461 0.033333 
1.840752 -0.614930 0.033333 
1.828776 -0.580987 0.033333 
1.806330 -0.529527 0.033333 
1.785642 -0.494400 0.033333 
1.766414 -0.468927 0.033333 
1.739624 -0.437615 0.033333 
1.714273 -0.410910 0.033333 
1.689193 -0.386729 0.033333 
1.663410 -0.363318 0.033333 
1.636734 -0.340239 0.033333 
1.609167 -0.317383 0.033333 
1.580712 -0.294316 0.033333 
1.551371 -0.269308 0.033333 
1.521144 -0.240305 0.033333 
1.490011 -0.206135 0.033333 
1.457868 -0.169144 0.033333 
1.424591 -0.132561 0.033333 
1.389746 -0.099169 0.033333 
1.351661 -0.069969 0.033333 
1.308357 -0.045520 0.033333 
1.274728 -0.033495 0.033333 
1.232024 -0.032154 0.033333 
1.174372 -0.049819 0.033333 
1.138105 -0.068380 0.033333 
1.095897 -0.094815 0.033333 
1.047016 -0.130163 0.033333 
1.863522 -0.707506 0.033333 
1.850246 -0.659644 0.033333 
1.837565 -0.619206 0.033333 
1.825442 -0.585355 0.033333 
1.802716 -0.534076 0.033333 
1.781768 -0.499128 0.033333 
1.762295 -0.473829 0.033333 
1.735167 -0.442769 0.033333 
1.709502 -0.416313 0.033333 
1.684122 -0.392386 0.033333 
1.658044 -0.369238 0.033333 
1.631079 -0.346432 0.033333 
1.603235 -0.323852 0.033333 
1.574518 -0.301063 0.033333 
1.544932 -0.276331 0.033333 
1.514480 -0.247601 0.033333 
1.483142 -0.213697 0.033333 
1.450817 -0.176966 0.033333 
1.417381 -0.140636 0.033333 
1.382402 -0.107488 0.033333 
1.344205 -0.078528 0.033333 
1.300807 -0.054316 0.033333 
1.267189 -0.042375 0.033333 
1.224886 -0.040670 0.033333 
1.168408 -0.057079 0.033333 
1.133136 -0.074539 0.033333 
1.092262 -0.099481 0.033333 
1.045099 -0.132890 0.033333 
1.860645 -0.711596 0.033333 
1.847212 -0.663828 0.033333 
1.834379 -0.623481 0.033333 
1.822109 -0.589722 0.033333 
1.799103 -0.538626 0.033333 
1.777894 -0.503856 0.033333 
1.758177 -0.478730 0.033333 
1.730710 -0.447924 0.033333 
1.704732 -0.421716 0.033333 
1.679051 -0.398042 0.033333 
1.652678 -0.375159 0.033333 
1.625425 -0.352624 0.033333 
1.597303 -0.330321 0.033333 
1.568325 -0.307809 0.033333 
1.538494 -0.283354 0.033333 
1.507816 -0.254896 0.033333 
1.476273 -0.221259 0.033333 
1.443765 -0.184789 0.033333 
1.410171 -0.148711 0.033333 
1.375058 -0.115808 0.033333 
1.336749 -0.087087 0.033333 
1.293258 -0.063112 0.033333 
1.259650 -0.051254 0.033333 
1.217748 -0.049186 0.033333 
1.162443 -0.064340 0.033333 
1.128168 -0.080697 0.033333 
1.088627 -0.104146 0.033333 
1.043181 -0.135616 0.033333 
1.857768 -0.715686 0.033333 
1.844178 -0.668011 0.033333 
1.831193 -0.627757 0.033333 
1.818775 -0.594090 0.033333 
1.795490 -0.543175 0.033333 
1.774019 -0.508584 0.033333 
1.754058 -0.483632 0.033333 
1.726253 -0.453078 0.033333 
1.699961 -0.427120 0.033333 
1.673979 -0.403699 0.033333 
1.647311 -0.381079 0.033333 
1.619770 -0.358816 0.033333 
1.591372 -0.336790 0.033333 
1.562131 -0.314556 0.033333 
1.532055 -0.290377 0.033333 
1.501151 -0.262192 0.033333 
1.469404 -0.228822 0.033333 
1.436714 -0.192611 0.033333 
1.402961 -0.156785 0.033333 
1.367713 -0.124127 0.033333 
1.329293 -0.095646 0.033333 
1.285708 -0.071908 0.033333 
1.252112 -0.060133 0.033333 
1.210610 -0.057703 0.033333 
1.156479 -0.071601 0.033333 
1.123200 -0.086856 0.033333 
1.084992 -0.108812 0.033333 
1.041263 -0.138343 0.033333 
1.866398 -0.703417 0.066667 
1.853280 -0.655461 0.066667 
1.840752 -0.614930 0.066667 
1.828776 -0.580987 0.066667 
1.806330 -0.529527 0.066667 
1.785642 -0.494400 0.066667 
1.766414 -0.468927 0.066667 
1.739624 -0.437615 0.066667 
1.714273 -0.410910 0.066667 
1.689193 -0.386729 0.066667 
1.663410 -0.363318 0.066667 
1.636734 -0.340239 0.066667 
1.609167 -0.317383 0.066667 
1.580712 -0.294316 0.066667 
1.551371 -0.269308 0.066667 
1.521144 -0.240305 0.066667 
1.490011 -0.206135 0.066667 
1.457868 -0.169144 0.066667 
1.424591 -0.132561 0.066667 
1.389746 -0.099169 0.066667 
1.351661 -0.069969 0.066667 
1.308357 -0.045520 0.066667 
1.274728 -0.033495 0.066667 
1.232024 -0.032154 0.066667 
1.174372 -0.049819 0.066667 
1.138105 -0.068380 0.066667 
1.095897 -0.094815 0.066667 
1.047016 -0.130163 0.066667 
1.863522 -0.707506 0.066667 
1.850246 -0.659644 0.066667 
1.837565 -0.619206 0.066667 
1.825442 -0.585355 0.066667 
1.802716 -0.534076 0.066667 
1.781768 -0.499128 0.066667 
1.762295 -0.473829 0.066667 
1.735167 -0.442769 0.066667 
1.709502 -0.416313 0.066667 
1.684122 -0.392386 0.066667 
1.658044 -0.369238 0.066667 
1.631079 -0.346432 0.066667 
1.603235 -0.323852 0.066667 
1.574518 -0.301063 0.066667 
1.544932 -0.276331 0.066667 
1.514480 -0.247601 0.066667 
1.483142 -0.213697 0.066667 
1.450817 -0.176966 0.066667 
1.417381 -0.140636 0.066667 
1.382402 -0.107488 0.066667 
1.344205 -0.078528 0.066667 
1.300807 -0.054316 0.066667 
1.267189 -0.042375 0.066667 
1.224886 -0.040670 0.066667 
1.168408 -0.057079 0.066667 
1.133136 -0.074539 0.066667 
1.092262 -0.099481 0.066667 
1.045099 -0.132890 0.066667 
1.860645 -0.711596 0.066667 
1.847212 -0.663828 0.066667 
1.834379 -0.623481 0.066667 
1.822109 -0.589722 0.066667 
1.799103 -0.538626 0.066667 
1.777894 -0.503856 0.066667 
1.758177 -0.478730 0.066667 
1.730710 -0.447924 0.066667 
1.704732 -0.421716 0.066667 
1.679051 -0.398042 0.066667 
1.652678 -0.375159 0.066667 
1.625425 -0.352624 0.066667 
1.597303 -0.330321 0.066667 
1.568325 -0.307809 0.066667 
1.538494 -0.283354 0.066667 
1.507816 -0.254896 0.066667 
1.476273 -0.221259 0.066667 
1.443765 -0.184789 0.066667 
1.410171 -0.148711 0.066667 
1.375058 -0.115808 0.066667 
1.336749 -0.087087 0.066667 
1.293258 -0.063112 0.066667 
1.259650 -0.051254 0.066667 
1.217748 -0.049186 0.066667 
1.162443 -0.064340 0.066667 
1.128168 -0.080697 0.066667 
1.088627 -0.104146 0.066667 
1.043181 -0.135616 0.066667 
1.857768 -0.715686 0.066667 
1.844178 -0.668011 0.066667 
1.831193 -0.627757 0.066667 
1.818775 -0.594090 0.066667 
1.795490 -0.543175 0.066667 
1.774019 -0.508584 0.066667 
1.754058 -0.483632 0.066667 
1.726253 -0.453078 0.066667 
1.699961 -0.427120 0.066667 
1.673979 -0.403699 0.066667 
1.647311 -0.381079 0.066667 
1.619770 -0.358816 0.066667 
1.591372 -0.336790 0.066667 
1.562131 -0.314556 0.066667 
1.532055 -0.290377 0.066667 
1.501151 -0.262192 0.066667 
1.469404 -0.228822 0.066667 
1.436714 -0.192611 0.066667 
1.402961 -0.156785 0.066667 
1.367713 -0.124127 0.066667 
1.329293 -0.095646 0.066667 
1.285708 -0.071908 0.066667 
1.252112 -0.060133 0.066667 
1.210610 -0.057703 0.066667 
1.156479 -0.071601 0.066667 
1.123200 -0.086856 0.066667 
1.084992 -0.108812 0.066667 
1.041263 -0.138343 0.066667 
1.866398 -0.703417 0.100000 
1.853280 -0.655461 0.100000 
1.840752 -0.614930 0.100000 
1.828776 -0.580987 0.100000 
1.806330 -0.529527 0.100000 
1.785642 -0.494400 0.100000 
1.766414 -0.468927 0.100000 
1.739624 -0.437615 0.100000 
1.714273 -0.410910 0.100000 
1.689193 -0.386729 0.100000 
1.663410 -0.363318 0.100000 
1.636734 -0.340239 0.100000 
1.609167 -0.317383 0.100000 
1.580712 -0.294316 0.100000 
1.551371 -0.269308 0.100000 
1.521144 -0.240305 0.100000 
1.490011 -0.206135 0.100000 
1.457868 -0.169144 0.100000 
1.424591 -0.132561 0.100000 
1.389746 -0.099169 0.100000 
1.351661 -0.069969 0.100000 
1.308357 -0.045520 0.100000 
1.274728 -0.033495 0.100000 
1.232024 -0.032154 0.100000 
1.174372 -0.049819 0.100000 
1.138105 -0.068380 0.100000 
1.095897 -0.094815 0.100000 
1.047016 -0.130163 0.100000 
1.863522 -0.707506 0.100000 
1.850246 -0.659644 0.100000 
1.837565 -0.619206 0.100000 
1.825442 -0.585355 0.100000 
1.802716 -0.534076 0.100000 
1.781768 -0.499128 0.100000 
1.762295 -0.473829 0.100000 
1.735167 -0.442769 0.100000 
1.709502 -0.416313 0.100000 
1.684122 -0.392386 0.100000 
1.658044 -0.369238 0.100000 
1.631079 -0.346432 0.100000 
1.603235 -0.323852 0.100000 
1.574518 -0.301063 0.100000 
1.544932 -0.276331 0.100000 
1.514480 -0.247601 0.100000 
1.483142 -0.213697 0.100000 
1.450817 -0.176966 0.100000 
1.417381 -0.140636 0.100000 
1.382402 -0.107488 0.100000 
1.344205 -0.078528 0.100000 
1.300807 -0.054316 0.100000 
1.267189 -0.042375 0.100000 
1.224886 -0.040670 0.100000 
1.168408 -0.057079 0.100000 
1.133136 -0.074539 0.100000 
1.092262 -0.099481 0.100000 
1.045099 -0.132890 0.100000 
1.860645 -0.711596 0.100000 
1.847212 -0.663828 0.100000 
1.834379 -0.623481 0.100000 
1.822109 -0.589722 0.100000 
1.799103 -0.538626 0.100000 
1.777894 -0.503856 0.100000 
1.758177 -0.478730 0.100000 
1.730710 -0.447924 0.100000 
1.704732 -0.421716 0.100000 
1.679051 -0.398042 0.100000 
1.652678 -0.375159 0.100000 
1.625425 -0.352624 0.100000 
1.597303 -0.330321 0.100000 
1.568325 -0.307809 0.100000 
1.538494 -0.283354 0.100000 
1.507816 -0.254896 0.100000 
1.476273 -0.221259 0.100000 
1.443765 -0.184789 0.100000 
1.410171 -0.148711 0.100000 
1.375058 -0.115808 0.100000 
1.336749 -0.087087 0.100000 
1.293258 -0.063112 0.100000 
1.259650 -0.051254 0.100000 
1.217748 -0.049186 0.100000 
1.162443 -0.064340 0.100000 
1.128168 -0.080697 0.100000 
1.088627 -0.104146 0.100000 
1.043181 -0.135616 0.100000 
1.857768 -0.715686 0.100000 
1.844178 -0.668011 0.100000 
1.831193 -0.627757 0.100000 
1.818775 -0.594090 0.100000 
1.795490 -0.543175 0.100000 
1.774019 -0.508584 0.100000 
1.754058 -0.483632 0.100000 
1.726253 -0.453078 0.100000 
1.699961 -0.427120 0.100000 
1.673979 -0.403699 0.100000 
1.647311 -0.381079 0.100000 
1.619770 -0.358816 0.100000 
1.591372 -0.336790 0.100000 
1.562131 -0.314556 0.100000 
1.532055 -0.290377 0.100000 
1.501151 -0.262192 0.100000 
1.469404 -0.228822 0.100000 
1.436714 -0.192611 0.100000 
1.402961 -0.156785 0.100000 
1.367713 -0.124127 0.100000 
1.329293 -0.095646 0.100000 
1.285708 -0.071908 0.100000 
1.252112 -0.060133 0.100000 
1.210610 -0.057703 0.100000 
1.156479 -0.071601 0.100000 
1.123200 -0.086856 0.100000 
1.084992 -0.108812 0.100000 
1.041263 -0.138343 0.100000 
