VARIABLES = "CoordinateX", "CoordinateY", "CoordinateZ"
Zone T="FFD_vol0" I=10 J=2 K=2
DATAPACKING=POINT
1.000000 -0.004972 0.000000 
0.973716 0.092847 0.000000 
0.899672 0.186388 0.000000 
0.763006 0.293122 0.000000 
0.615441 0.345875 0.000000 
0.384559 0.345875 0.000000 
0.236994 0.293122 0.000000 
0.100328 0.186388 0.000000 
0.026284 0.092847 0.000000 
0.000000 -0.004972 0.000000 
1.000000 -0.014972 0.000000 
0.962798 -0.005037 0.000000 
0.913486 0.037089 0.000000 
0.797974 0.136304 0.000000 
0.643930 0.214355 0.000000 
0.356070 0.214355 0.000000 
0.202026 0.136304 0.000000 
0.086514 0.037089 0.000000 
0.037202 -0.005037 0.000000 
0.000000 -0.014972 0.000000 
1.000000 -0.004972 0.100000 
0.973716 0.092847 0.100000 
0.899672 0.186388 0.100000 
0.763006 0.293122 0.100000 
0.615441 0.345875 0.100000 
0.384559 0.345875 0.100000 
0.236994 0.293122 0.100000 
0.100328 0.186388 0.100000 
0.026284 0.092847 0.100000 
0.000000 -0.004972 0.100000 
1.000000 -0.014972 0.100000 
0.962798 -0.005037 0.100000 
0.913486 0.037089 0.100000 
0.797974 0.136304 0.100000 
0.643930 0.214355 0.100000 
0.356070 0.214355 0.100000 
0.202026 0.136304 0.100000 
0.086514 0.037089 0.100000 
0.037202 -0.005037 0.100000 
0.000000 -0.014972 0.100000 
Zone T="embedding_vol" I=28 J=4 K=4
DATAPACKING=POINT
1.000000 -0.004972 0.000000 
0.990850 0.025806 0.000000 
0.980958 0.053177 0.000000 
0.970376 0.077514 0.000000 
0.947360 0.118586 0.000000 
0.922228 0.152014 0.000000 
0.895405 0.180792 0.000000 
0.852785 0.219975 0.000000 
0.807865 0.254671 0.000000 
0.761190 0.284125 0.000000 
0.712765 0.307715 0.000000 
0.660448 0.325353 0.000000 
0.601555 0.337083 0.000000 
0.534880 0.342945 0.000000 
0.465120 0.342945 0.000000 
0.398445 0.337083 0.000000 
0.339552 0.325353 0.000000 
0.287235 0.307715 0.000000 
0.238810 0.284125 0.000000 
0.192135 0.254671 0.000000 
0.147215 0.219975 0.000000 
0.104595 0.180792 0.000000 
0.077772 0.152014 0.000000 
0.052640 0.118586 0.000000 
0.029624 0.077514 0.000000 
0.019042 0.053177 0.000000 
0.009150 0.025806 0.000000 
0.000000 -0.004972 0.000000 
1.000000 -0.008305 0.000000 
0.989912 0.013452 0.000000 
0.979586 0.033199 0.000000 
0.969004 0.051170 0.000000 
0.946999 0.082728 0.000000 
0.923753 0.110008 0.000000 
0.899124 0.134892 0.000000 
0.859421 0.170586 0.000000 
0.816683 0.203917 0.000000 
0.771310 0.233676 0.000000 
0.723143 0.258742 0.000000 
0.669776 0.278353 0.000000 
0.608246 0.291838 0.000000 
0.537318 0.298636 0.000000 
0.462682 0.298636 0.000000 
0.391754 0.291838 0.000000 
0.330224 0.278353 0.000000 
0.276857 0.258742 0.000000 
0.228690 0.233676 0.000000 
0.183317 0.203917 0.000000 
0.140579 0.170586 0.000000 
0.100876 0.134892 0.000000 
0.076247 0.110008 0.000000 
0.053001 0.082728 0.000000 
0.030996 0.051170 0.000000 
0.020414 0.033199 0.000000 
0.010088 0.013452 0.000000 
0.000000 -0.008305 0.000000 
1.000000 -0.011639 0.000000 
0.988975 0.001099 0.000000 
0.978215 0.013221 0.000000 
0.967632 0.024827 0.000000 
0.946637 0.046870 0.000000 
0.925278 0.068001 0.000000 
0.902843 0.088993 0.000000 
0.866057 0.121198 0.000000 
0.825501 0.153163 0.000000 
0.781431 0.183226 0.000000 
0.733520 0.209768 0.000000 
0.679104 0.231353 0.000000 
0.614937 0.246592 0.000000 
0.539756 0.254328 0.000000 
0.460244 0.254328 0.000000 
0.385063 0.246592 0.000000 
0.320896 0.231353 0.000000 
0.266480 0.209768 0.000000 
0.218569 0.183226 0.000000 
0.174499 0.153163 0.000000 
0.133943 0.121198 0.000000 
0.097157 0.088993 0.000000 
0.074722 0.068001 0.000000 
0.053363 0.046870 0.000000 
0.032368 0.024827 0.000000 
0.021785 0.013221 0.000000 
0.011025 0.001099 0.000000 
0.000000 -0.011639 0.000000 
1.000000 -0.014972 0.000000 
0.988037 -0.011255 0.000000 
0.976844 -0.006756 0.000000 
0.966259 -0.001517 0.000000 
0.946275 0.011012 0.000000 
0.926804 0.025994 0.000000 
0.906562 0.043093 0.000000 
0.872693 0.071809 0.000000 
0.834319 0.102410 0.000000 
0.791552 0.132777 0.000000 
0.743897 0.160794 0.000000 
0.688432 0.184353 0.000000 
0.621627 0.201347 0.000000 
0.542195 0.210019 0.000000 
0.457805 0.210019 0.000000 
0.378373 0.201347 0.000000 
0.311568 0.184353 0.000000 
0.256103 0.160794 0.000000 
0.208448 0.132777 0.000000 
0.165681 0.102410 0.000000 
0.127307 0.071809 0.000000 
0.093438 0.043093 0.000000 
0.073196 0.025994 0.000000 
0.053725 0.011012 0.000000 
0.033741 -0.001517 0.000000 
0.023156 -0.006756 0.000000 
0.011963 -0.011255 0.000000 
0.000000 -0.014972 0.000000 
1.000000 -0.004972 0.033333 
0.990850 0.025806 0.033333 
0.980958 0.053177 0.033333 
0.970376 0.077514 0.033333 
0.947360 0.118586 0.033333 
0.922228 0.152014 0.033333 
0.895405 0.180792 0.033333 
0.852785 0.219975 0.033333 
0.807865 0.254671 0.033333 
0.761190 0.284125 0.033333 
0.712765 0.307715 0.033333 
0.660448 0.325353 0.033333 
0.601555 0.337083 0.033333 
0.534880 0.342945 0.033333 
0.465120 0.342945 0.033333 
0.398445 0.337083 0.033333 
0.339552 0.325353 0.033333 
0.287235 0.307715 0.033333 
0.238810 0.284125 0.033333 
0.192135 0.254671 0.033333 
0.147215 0.219975 0.033333 
0.104595 0.180792 0.033333 
0.077772 0.152014 0.033333 
0.052640 0.118586 0.033333 
0.029624 0.077514 0.033333 
0.019042 0.053177 0.033333 
0.009150 0.025806 0.033333 
0.000000 -0.004972 0.033333 
1.000000 -0.008305 0.033333 
0.989912 0.013452 0.033333 
0.979586 0.033199 0.033333 
0.969004 0.051170 0.033333 
0.946999 0.082728 0.033333 
0.923753 0.110008 0.033333 
0.899124 0.134892 0.033333 
0.859421 0.170586 0.033333 
0.816683 0.203917 0.033333 
0.771310 0.233676 0.033333 
0.723143 0.258742 0.033333 
0.669776 0.278353 0.033333 
0.608246 0.291838 0.033333 
0.537318 0.298636 0.033333 
0.462682 0.298636 0.033333 
0.391754 0.291838 0.033333 
0.330224 0.278353 0.033333 
0.276857 0.258742 0.033333 
0.228690 0.233676 0.033333 
0.183317 0.203917 0.033333 
0.140579 0.170586 0.033333 
0.100876 0.134892 0.033333 
0.076247 0.110008 0.033333 
0.053001 0.082728 0.033333 
0.030996 0.051170 0.033333 
0.020414 0.033199 0.033333 
0.010088 0.013452 0.033333 
0.000000 -0.008305 0.033333 
1.000000 -0.011639 0.033333 
0.988975 0.001099 0.033333 
0.978215 0.013221 0.033333 
0.967632 0.024827 0.033333 
0.946637 0.046870 0.033333 
0.925278 0.068001 0.033333 
0.902843 0.088993 0.033333 
0.866057 0.121198 0.033333 
0.825501 0.153163 0.033333 
0.781431 0.183226 0.033333 
0.733520 0.209768 0.033333 
0.679104 0.231353 0.033333 
0.614937 0.246592 0.033333 
0.539756 0.254328 0.033333 
0.460244 0.254328 0.033333 
0.385063 0.246592 0.033333 
0.320896 0.231353 0.033333 
0.266480 0.209768 0.033333 
0.218569 0.183226 0.033333 
0.174499 0.153163 0.033333 
0.133943 0.121198 0.033333 
0.097157 0.088993 0.033333 
0.074722 0.068001 0.033333 
0.053363 0.046870 0.033333 
0.032368 0.024827 0.033333 
0.021785 0.013221 0.033333 
0.011025 0.001099 0.033333 
0.000000 -0.011639 0.033333 
1.000000 -0.014972 0.033333 
0.988037 -0.011255 0.033333 
0.976844 -0.006756 0.033333 
0.966259 -0.001517 0.033333 
0.946275 0.011012 0.033333 
0.926804 0.025994 0.033333 
0.906562 0.043093 0.033333 
0.872693 0.071809 0.033333 
0.834319 0.102410 0.033333 
0.791552 0.132777 0.033333 
0.743897 0.160794 0.033333 
0.688432 0.184353 0.033333 
0.621627 0.201347 0.033333 
0.542195 0.210019 0.033333 
0.457805 0.210019 0.033333 
0.378373 0.201347 0.033333 
0.311568 0.184353 0.033333 
0.256103 0.160794 0.033333 
0.208448 0.132777 0.033333 
0.165681 0.102410 0.033333 
0.127307 0.071809 0.033333 
0.093438 0.043093 0.033333 
0.073196 0.025994 0.033333 
0.053725 0.011012 0.033333 
0.033741 -0.001517 0.033333 
0.023156 -0.006756 0.033333 
0.011963 -0.011255 0.033333 
0.000000 -0.014972 0.033333 
1.000000 -0.004972 0.066667 
0.990850 0.025806 0.066667 
0.980958 0.053177 0.066667 
0.970376 0.077514 0.066667 
0.947360 0.118586 0.066667 
0.922228 0.152014 0.066667 
0.895405 0.180792 0.066667 
0.852785 0.219975 0.066667 
0.807865 0.254671 0.066667 
0.761190 0.284125 0.066667 
0.712765 0.307715 0.066667 
0.660448 0.325353 0.066667 
0.601555 0.337083 0.066667 
0.534880 0.342945 0.066667 
0.465120 0.342945 0.066667 
0.398445 0.337083 0.066667 
0.339552 0.325353 0.066667 
0.287235 0.307715 0.066667 
0.238810 0.284125 0.066667 
0.192135 0.254671 0.066667 
0.147215 0.219975 0.066667 
0.104595 0.180792 0.066667 
0.077772 0.152014 0.066667 
0.052640 0.118586 0.066667 
0.029624 0.077514 0.066667 
0.019042 0.053177 0.066667 
0.009150 0.025806 0.066667 
0.000000 -0.004972 0.066667 
1.000000 -0.008305 0.066667 
0.989912 0.013452 0.066667 
0.979586 0.033199 0.066667 
0.969004 0.051170 0.066667 
0.946999 0.082728 0.066667 
0.923753 0.110008 0.066667 
0.899124 0.134892 0.066667 
0.859421 0.170586 0.066667 
0.816683 0.203917 0.066667 
0.771310 0.233676 0.066667 
0.723143 0.258742 0.066667 
0.669776 0.278353 0.066667 
0.608246 0.291838 0.066667 
0.537318 0.298636 0.066667 
0.462682 0.298636 0.066667 
0.391754 0.291838 0.066667 
0.330224 0.278353 0.066667 
0.276857 0.258742 0.066667 
0.228690 0.233676 0.066667 
0.183317 0.203917 0.066667 
0.140579 0.170586 0.066667 
0.100876 0.134892 0.066667 
0.076247 0.110008 0.066667 
0.053001 0.082728 0.066667 
0.030996 0.051170 0.066667 
0.020414 0.033199 0.066667 
0.010088 0.013452 0.066667 
0.000000 -0.008305 0.066667 
1.000000 -0.011639 0.066667 
0.988975 0.001099 0.066667 
0.978215 0.013221 0.066667 
0.967632 0.024827 0.066667 
0.946637 0.046870 0.066667 
0.925278 0.068001 0.066667 
0.902843 0.088993 0.066667 
0.866057 0.121198 0.066667 
0.825501 0.153163 0.066667 
0.781431 0.183226 0.066667 
0.733520 0.209768 0.066667 
0.679104 0.231353 0.066667 
0.614937 0.246592 0.066667 
0.539756 0.254328 0.066667 
0.460244 0.254328 0.066667 
0.385063 0.246592 0.066667 
0.320896 0.231353 0.066667 
0.266480 0.209768 0.066667 
0.218569 0.183226 0.066667 
0.174499 0.153163 0.066667 
0.133943 0.121198 0.066667 
0.097157 0.088993 0.066667 
0.074722 0.068001 0.066667 
0.053363 0.046870 0.066667 
0.032368 0.024827 0.066667 
0.021785 0.013221 0.066667 
0.011025 0.001099 0.066667 
0.000000 -0.011639 0.066667 
1.000000 -0.014972 0.066667 
0.988037 -0.011255 0.066667 
0.976844 -0.006756 0.066667 
0.966259 -0.001517 0.066667 
0.946275 0.011012 0.066667 
0.926804 0.025994 0.066667 
0.906562 0.043093 0.066667 
0.872693 0.071809 0.066667 
0.834319 0.102410 0.066667 
0.791552 0.132777 0.066667 
0.743897 0.160794 0.066667 
0.688432 0.184353 0.066667 
0.621627 0.201347 0.066667 
0.542195 0.210019 0.066667 
0.457805 0.210019 0.066667 
0.378373 0.201347 0.066667 
0.311568 0.184353 0.066667 
0.256103 0.160794 0.066667 
0.208448 0.132777 0.066667 
0.165681 0.102410 0.066667 
0.127307 0.071809 0.066667 
0.093438 0.043093 0.066667 
0.073196 0.025994 0.066667 
0.053725 0.011012 0.066667 
0.033741 -0.001517 0.066667 
0.023156 -0.006756 0.066667 
0.011963 -0.011255 0.066667 
0.000000 -0.014972 0.066667 
1.000000 -0.004972 0.100000 
0.990850 0.025806 0.100000 
0.980958 0.053177 0.100000 
0.970376 0.077514 0.100000 
0.947360 0.118586 0.100000 
0.922228 0.152014 0.100000 
0.895405 0.180792 0.100000 
0.852785 0.219975 0.100000 
0.807865 0.254671 0.100000 
0.761190 0.284125 0.100000 
0.712765 0.307715 0.100000 
0.660448 0.325353 0.100000 
0.601555 0.337083 0.100000 
0.534880 0.342945 0.100000 
0.465120 0.342945 0.100000 
0.398445 0.337083 0.100000 
0.339552 0.325353 0.100000 
0.287235 0.307715 0.100000 
0.238810 0.284125 0.100000 
0.192135 0.254671 0.100000 
0.147215 0.219975 0.100000 
0.104595 0.180792 0.100000 
0.077772 0.152014 0.100000 
0.052640 0.118586 0.100000 
0.029624 0.077514 0.100000 
0.019042 0.053177 0.100000 
0.009150 0.025806 0.100000 
0.000000 -0.004972 0.100000 
1.000000 -0.008305 0.100000 
0.989912 0.013452 0.100000 
0.979586 0.033199 0.100000 
0.969004 0.051170 0.100000 
0.946999 0.082728 0.100000 
0.923753 0.110008 0.100000 
0.899124 0.134892 0.100000 
0.859421 0.170586 0.100000 
0.816683 0.203917 0.100000 
0.771310 0.233676 0.100000 
0.723143 0.258742 0.100000 
0.669776 0.278353 0.100000 
0.608246 0.291838 0.100000 
0.537318 0.298636 0.100000 
0.462682 0.298636 0.100000 
0.391754 0.291838 0.100000 
0.330224 0.278353 0.100000 
0.276857 0.258742 0.100000 
0.228690 0.233676 0.100000 
0.183317 0.203917 0.100000 
0.140579 0.170586 0.100000 
0.100876 0.134892 0.100000 
0.076247 0.110008 0.100000 
0.053001 0.082728 0.100000 
0.030996 0.051170 0.100000 
0.020414 0.033199 0.100000 
0.010088 0.013452 0.100000 
0.000000 -0.008305 0.100000 
1.000000 -0.011639 0.100000 
0.988975 0.001099 0.100000 
0.978215 0.013221 0.100000 
0.967632 0.024827 0.100000 
0.946637 0.046870 0.100000 
0.925278 0.068001 0.100000 
0.902843 0.088993 0.100000 
0.866057 0.121198 0.100000 
0.825501 0.153163 0.100000 
0.781431 0.183226 0.100000 
0.733520 0.209768 0.100000 
0.679104 0.231353 0.100000 
0.614937 0.246592 0.100000 
0.539756 0.254328 0.100000 
0.460244 0.254328 0.100000 
0.385063 0.246592 0.100000 
0.320896 0.231353 0.100000 
0.266480 0.209768 0.100000 
0.218569 0.183226 0.100000 
0.174499 0.153163 0.100000 
0.133943 0.121198 0.100000 
0.097157 0.088993 0.100000 
0.074722 0.068001 0.100000 
0.053363 0.046870 0.100000 
0.032368 0.024827 0.100000 
0.021785 0.013221 0.100000 
0.011025 0.001099 0.100000 
0.000000 -0.011639 0.100000 
1.000000 -0.014972 0.100000 
0.988037 -0.011255 0.100000 
0.976844 -0.006756 0.100000 
0.966259 -0.001517 0.100000 
0.946275 0.011012 0.100000 
0.926804 0.025994 0.100000 
0.906562 0.043093 0.100000 
0.872693 0.071809 0.100000 
0.834319 0.102410 0.100000 
0.791552 0.132777 0.100000 
0.743897 0.160794 0.100000 
0.688432 0.184353 0.100000 
0.621627 0.201347 0.100000 
0.542195 0.210019 0.100000 
0.457805 0.210019 0.100000 
0.378373 0.201347 0.100000 
0.311568 0.184353 0.100000 
0.256103 0.160794 0.100000 
0.208448 0.132777 0.100000 
0.165681 0.102410 0.100000 
0.127307 0.071809 0.100000 
0.093438 0.043093 0.100000 
0.073196 0.025994 0.100000 
0.053725 0.011012 0.100000 
0.033741 -0.001517 0.100000 
0.023156 -0.006756 0.100000 
0.011963 -0.011255 0.100000 
0.000000 -0.014972 0.100000 
Zone T="FFD_vol1" I=10 J=2 K=2
DATAPACKING=POINT
1.832608 -0.683265 0.000000 
1.792064 -0.590942 0.000000 
1.728333 -0.492273 0.000000 
1.656256 -0.398407 0.000000 
1.576109 -0.311275 0.000000 
1.487984 -0.238808 0.000000 
1.391894 -0.164882 0.000000 
1.284496 -0.115226 0.000000 
1.169660 -0.088415 0.000000 
1.012455 -0.101128 0.000000 
1.823995 -0.695547 0.000000 
1.782010 -0.604065 0.000000 
1.715839 -0.507047 0.000000 
1.641053 -0.415341 0.000000 
1.558271 -0.330703 0.000000 
1.467927 -0.260748 0.000000 
1.370183 -0.189173 0.000000 
1.261812 -0.141641 0.000000 
1.146612 -0.116255 0.000000 
1.006713 -0.109315 0.000000 
1.832608 -0.683265 0.100000 
1.792064 -0.590942 0.100000 
1.728333 -0.492273 0.100000 
1.656256 -0.398407 0.100000 
1.576109 -0.311275 0.100000 
1.487984 -0.238808 0.100000 
1.391894 -0.164882 0.100000 
1.284496 -0.115226 0.100000 
1.169660 -0.088415 0.100000 
1.012455 -0.101128 0.100000 
1.823995 -0.695547 0.100000 
1.782010 -0.604065 0.100000 
1.715839 -0.507047 0.100000 
1.641053 -0.415341 0.100000 
1.558271 -0.330703 0.100000 
1.467927 -0.260748 0.100000 
1.370183 -0.189173 0.100000 
1.261812 -0.141641 0.100000 
1.146612 -0.116255 0.100000 
1.006713 -0.109315 0.100000 
Zone T="embedding_vol" I=28 J=4 K=4
DATAPACKING=POINT
1.832608 -0.683265 0.000000 
1.819408 -0.654036 0.000000 
1.806812 -0.627712 0.000000 
1.794781 -0.604013 0.000000 
1.772254 -0.563373 0.000000 
1.751516 -0.529879 0.000000 
1.732253 -0.501296 0.000000 
1.705419 -0.463699 0.000000 
1.680028 -0.430362 0.000000 
1.654911 -0.399529 0.000000 
1.629093 -0.369786 0.000000 
1.602381 -0.341085 0.000000 
1.574779 -0.313719 0.000000 
1.546291 -0.287835 0.000000 
1.516916 -0.262982 0.000000 
1.486656 -0.238565 0.000000 
1.455491 -0.214244 0.000000 
1.423316 -0.190714 0.000000 
1.390009 -0.168927 0.000000 
1.355136 -0.149587 0.000000 
1.317022 -0.132394 0.000000 
1.273686 -0.116799 0.000000 
1.240036 -0.107316 0.000000 
1.197325 -0.099914 0.000000 
1.139693 -0.096212 0.000000 
1.103451 -0.096252 0.000000 
1.061283 -0.097824 0.000000 
1.012455 -0.101128 0.000000 
1.829737 -0.687359 0.000000 
1.816380 -0.658224 0.000000 
1.803632 -0.631992 0.000000 
1.791453 -0.608386 0.000000 
1.768647 -0.567928 0.000000 
1.747648 -0.534612 0.000000 
1.728141 -0.506203 0.000000 
1.700969 -0.468859 0.000000 
1.675265 -0.435772 0.000000 
1.649847 -0.405193 0.000000 
1.623734 -0.375713 0.000000 
1.596735 -0.347285 0.000000 
1.568856 -0.320196 0.000000 
1.540106 -0.294590 0.000000 
1.510487 -0.270014 0.000000 
1.480002 -0.245870 0.000000 
1.448632 -0.221815 0.000000 
1.416275 -0.198545 0.000000 
1.382810 -0.177011 0.000000 
1.347803 -0.157916 0.000000 
1.309578 -0.140963 0.000000 
1.266149 -0.125605 0.000000 
1.232510 -0.116205 0.000000 
1.190198 -0.108440 0.000000 
1.133738 -0.103480 0.000000 
1.098491 -0.102418 0.000000 
1.057654 -0.102494 0.000000 
1.010541 -0.103857 0.000000 
1.826866 -0.691453 0.000000 
1.813351 -0.662411 0.000000 
1.800451 -0.636272 0.000000 
1.788125 -0.612758 0.000000 
1.765040 -0.572482 0.000000 
1.743780 -0.539346 0.000000 
1.724029 -0.511110 0.000000 
1.696519 -0.474020 0.000000 
1.670501 -0.441182 0.000000 
1.644784 -0.410856 0.000000 
1.618376 -0.381641 0.000000 
1.591088 -0.353485 0.000000 
1.562934 -0.326673 0.000000 
1.533922 -0.301345 0.000000 
1.504058 -0.277046 0.000000 
1.473348 -0.253174 0.000000 
1.441773 -0.229387 0.000000 
1.409234 -0.206377 0.000000 
1.375611 -0.185096 0.000000 
1.340470 -0.166245 0.000000 
1.302133 -0.149532 0.000000 
1.258611 -0.134411 0.000000 
1.224983 -0.125094 0.000000 
1.183072 -0.116966 0.000000 
1.127784 -0.110749 0.000000 
1.093532 -0.108583 0.000000 
1.054025 -0.107165 0.000000 
1.008627 -0.106586 0.000000 
1.823995 -0.695547 0.000000 
1.810323 -0.666598 0.000000 
1.797270 -0.640552 0.000000 
1.784798 -0.617130 0.000000 
1.761433 -0.577037 0.000000 
1.739912 -0.544079 0.000000 
1.719917 -0.516017 0.000000 
1.692069 -0.479180 0.000000 
1.665738 -0.446591 0.000000 
1.639720 -0.416519 0.000000 
1.613017 -0.387568 0.000000 
1.585442 -0.359685 0.000000 
1.557011 -0.333150 0.000000 
1.527737 -0.308100 0.000000 
1.497629 -0.284077 0.000000 
1.466693 -0.260478 0.000000 
1.434914 -0.236958 0.000000 
1.402194 -0.214209 0.000000 
1.368412 -0.193180 0.000000 
1.333137 -0.174575 0.000000 
1.294688 -0.158100 0.000000 
1.251074 -0.143217 0.000000 
1.217456 -0.133984 0.000000 
1.175945 -0.125492 0.000000 
1.121829 -0.118018 0.000000 
1.088572 -0.114748 0.000000 
1.050396 -0.111835 0.000000 
1.006713 -0.109315 0.000000 
1.832608 -0.683265 0.033333 
1.819408 -0.654036 0.033333 
1.806812 -0.627712 0.033333 
1.794781 -0.604013 0.033333 
1.772254 -0.563373 0.033333 
1.751516 -0.529879 0.033333 
1.732253 -0.501296 0.033333 
1.705419 -0.463699 0.033333 
1.680028 -0.430362 0.033333 
1.654911 -0.399529 0.033333 
1.629093 -0.369786 0.033333 
1.602381 -0.341085 0.033333 
1.574779 -0.313719 0.033333 
1.546291 -0.287835 0.033333 
1.516916 -0.262982 0.033333 
1.486656 -0.238565 0.033333 
1.455491 -0.214244 0.033333 
1.423316 -0.190714 0.033333 
1.390009 -0.168927 0.033333 
1.355136 -0.149587 0.033333 
1.317022 -0.132394 0.033333 
1.273686 -0.116799 0.033333 
1.240036 -0.107316 0.033333 
1.197325 -0.099914 0.033333 
1.139693 -0.096212 0.033333 
1.103451 -0.096252 0.033333 
1.061283 -0.097824 0.033333 
1.012455 -0.101128 0.033333 
1.829737 -0.687359 0.033333 
1.816380 -0.658224 0.033333 
1.803632 -0.631992 0.033333 
1.791453 -0.608386 0.033333 
1.768647 -0.567928 0.033333 
1.747648 -0.534612 0.033333 
1.728141 -0.506203 0.033333 
1.700969 -0.468859 0.033333 
1.675265 -0.435772 0.033333 
1.649847 -0.405193 0.033333 
1.623734 -0.375713 0.033333 
1.596735 -0.347285 0.033333 
1.568856 -0.320196 0.033333 
1.540106 -0.294590 0.033333 
1.510487 -0.270014 0.033333 
1.480002 -0.245870 0.033333 
1.448632 -0.221815 0.033333 
1.416275 -0.198545 0.033333 
1.382810 -0.177011 0.033333 
1.347803 -0.157916 0.033333 
1.309578 -0.140963 0.033333 
1.266149 -0.125605 0.033333 
1.232510 -0.116205 0.033333 
1.190198 -0.108440 0.033333 
1.133738 -0.103480 0.033333 
1.098491 -0.102418 0.033333 
1.057654 -0.102494 0.033333 
1.010541 -0.103857 0.033333 
1.826866 -0.691453 0.033333 
1.813351 -0.662411 0.033333 
1.800451 -0.636272 0.033333 
1.788125 -0.612758 0.033333 
1.765040 -0.572482 0.033333 
1.743780 -0.539346 0.033333 
1.724029 -0.511110 0.033333 
1.696519 -0.474020 0.033333 
1.670501 -0.441182 0.033333 
1.644784 -0.410856 0.033333 
1.618376 -0.381641 0.033333 
1.591088 -0.353485 0.033333 
1.562934 -0.326673 0.033333 
1.533922 -0.301345 0.033333 
1.504058 -0.277046 0.033333 
1.473348 -0.253174 0.033333 
1.441773 -0.229387 0.033333 
1.409234 -0.206377 0.033333 
1.375611 -0.185096 0.033333 
1.340470 -0.166245 0.033333 
1.302133 -0.149532 0.033333 
1.258611 -0.134411 0.033333 
1.224983 -0.125094 0.033333 
1.183072 -0.116966 0.033333 
1.127784 -0.110749 0.033333 
1.093532 -0.108583 0.033333 
1.054025 -0.107165 0.033333 
1.008627 -0.106586 0.033333 
1.823995 -0.695547 0.033333 
1.810323 -0.666598 0.033333 
1.797270 -0.640552 0.033333 
1.784798 -0.617130 0.033333 
1.761433 -0.577037 0.033333 
1.739912 -0.544079 0.033333 
1.719917 -0.516017 0.033333 
1.692069 -0.479180 0.033333 
1.665738 -0.446591 0.033333 
1.639720 -0.416519 0.033333 
1.613017 -0.387568 0.033333 
1.585442 -0.359685 0.033333 
1.557011 -0.333150 0.033333 
1.527737 -0.308100 0.033333 
1.497629 -0.284077 0.033333 
1.466693 -0.260478 0.033333 
1.434914 -0.236958 0.033333 
1.402194 -0.214209 0.033333 
1.368412 -0.193180 0.033333 
1.333137 -0.174575 0.033333 
1.294688 -0.158100 0.033333 
1.251074 -0.143217 0.033333 
1.217456 -0.133984 0.033333 
1.175945 -0.125492 0.033333 
1.121829 -0.118018 0.033333 
1.088572 -0.114748 0.033333 
1.050396 -0.111835 0.033333 
1.006713 -0.109315 0.033333 
1.832608 -0.683265 0.066667 
1.819408 -0.654036 0.066667 
1.806812 -0.627712 0.066667 
1.794781 -0.604013 0.066667 
1.772254 -0.563373 0.066667 
1.751516 -0.529879 0.066667 
1.732253 -0.501296 0.066667 
1.705419 -0.463699 0.066667 
1.680028 -0.430362 0.066667 
1.654911 -0.399529 0.066667 
1.629093 -0.369786 0.066667 
1.602381 -0.341085 0.066667 
1.574779 -0.313719 0.066667 
1.546291 -0.287835 0.066667 
1.516916 -0.262982 0.066667 
1.486656 -0.238565 0.066667 
1.455491 -0.214244 0.066667 
1.423316 -0.190714 0.066667 
1.390009 -0.168927 0.066667 
1.355136 -0.149587 0.066667 
1.317022 -0.132394 0.066667 
1.273686 -0.116799 0.066667 
1.240036 -0.107316 0.066667 
1.197325 -0.099914 0.066667 
1.139693 -0.096212 0.066667 
1.103451 -0.096252 0.066667 
1.061283 -0.097824 0.066667 
1.012455 -0.101128 0.066667 
1.829737 -0.687359 0.066667 
1.816380 -0.658224 0.066667 
1.803632 -0.631992 0.066667 
1.791453 -0.608386 0.066667 
1.768647 -0.567928 0.066667 
1.747648 -0.534612 0.066667 
1.728141 -0.506203 0.066667 
1.700969 -0.468859 0.066667 
1.675265 -0.435772 0.066667 
1.649847 -0.405193 0.066667 
1.623734 -0.375713 0.066667 
1.596735 -0.347285 0.066667 
1.568856 -0.320196 0.066667 
1.540106 -0.294590 0.066667 
1.510487 -0.270014 0.066667 
1.480002 -0.245870 0.066667 
1.448632 -0.221815 0.066667 
1.416275 -0.198545 0.066667 
1.382810 -0.177011 0.066667 
1.347803 -0.157916 0.066667 
1.309578 -0.140963 0.066667 
1.266149 -0.125605 0.066667 
1.232510 -0.116205 0.066667 
1.190198 -0.108440 0.066667 
1.133738 -0.103480 0.066667 
1.098491 -0.102418 0.066667 
1.057654 -0.102494 0.066667 
1.010541 -0.103857 0.066667 
1.826866 -0.691453 0.066667 
1.813351 -0.662411 0.066667 
1.800451 -0.636272 0.066667 
1.788125 -0.612758 0.066667 
1.765040 -0.572482 0.066667 
1.743780 -0.539346 0.066667 
1.724029 -0.511110 0.066667 
1.696519 -0.474020 0.066667 
1.670501 -0.441182 0.066667 
1.644784 -0.410856 0.066667 
1.618376 -0.381641 0.066667 
1.591088 -0.353485 0.066667 
1.562934 -0.326673 0.066667 
1.533922 -0.301345 0.066667 
1.504058 -0.277046 0.066667 
1.473348 -0.253174 0.066667 
1.441773 -0.229387 0.066667 
1.409234 -0.206377 0.066667 
1.375611 -0.185096 0.066667 
1.340470 -0.166245 0.066667 
1.302133 -0.149532 0.066667 
1.258611 -0.134411 0.066667 
1.224983 -0.125094 0.066667 
1.183072 -0.116966 0.066667 
1.127784 -0.110749 0.066667 
1.093532 -0.108583 0.066667 
1.054025 -0.107165 0.066667 
1.008627 -0.106586 0.066667 
1.823995 -0.695547 0.066667 
1.810323 -0.666598 0.066667 
1.797270 -0.640552 0.066667 
1.784798 -0.617130 0.066667 
1.761433 -0.577037 0.066667 
1.739912 -0.544079 0.066667 
1.719917 -0.516017 0.066667 
1.692069 -0.479180 0.066667 
1.665738 -0.446591 0.066667 
1.639720 -0.416519 0.066667 
1.613017 -0.387568 0.066667 
1.585442 -0.359685 0.066667 
1.557011 -0.333150 0.066667 
1.527737 -0.308100 0.066667 
1.497629 -0.284077 0.066667 
1.466693 -0.260478 0.066667 
1.434914 -0.236958 0.066667 
1.402194 -0.214209 0.066667 
1.368412 -0.193180 0.066667 
1.333137 -0.174575 0.066667 
1.294688 -0.158100 0.066667 
1.251074 -0.143217 0.066667 
1.217456 -0.133984 0.066667 
1.175945 -0.125492 0.066667 
1.121829 -0.118018 0.066667 
1.088572 -0.114748 0.066667 
1.050396 -0.111835 0.066667 
1.006713 -0.109315 0.066667 
1.832608 -0.683265 0.100000 
1.819408 -0.654036 0.100000 
1.806812 -0.627712 0.100000 
1.794781 -0.604013 0.100000 
1.772254 -0.563373 0.100000 
1.751516 -0.529879 0.100000 
1.732253 -0.501296 0.100000 
1.705419 -0.463699 0.100000 
1.680028 -0.430362 0.100000 
1.654911 -0.399529 0.100000 
1.629093 -0.369786 0.100000 
1.602381 -0.341085 0.100000 
1.574779 -0.313719 0.100000 
1.546291 -0.287835 0.100000 
1.516916 -0.262982 0.100000 
1.486656 -0.238565 0.100000 
1.455491 -0.214244 0.100000 
1.423316 -0.190714 0.100000 
1.390009 -0.168927 0.100000 
1.355136 -0.149587 0.100000 
1.317022 -0.132394 0.100000 
1.273686 -0.116799 0.100000 
1.240036 -0.107316 0.100000 
1.197325 -0.099914 0.100000 
1.139693 -0.096212 0.100000 
1.103451 -0.096252 0.100000 
1.061283 -0.097824 0.100000 
1.012455 -0.101128 0.100000 
1.829737 -0.687359 0.100000 
1.816380 -0.658224 0.100000 
1.803632 -0.631992 0.100000 
1.791453 -0.608386 0.100000 
1.768647 -0.567928 0.100000 
1.747648 -0.534612 0.100000 
1.728141 -0.506203 0.100000 
1.700969 -0.468859 0.100000 
1.675265 -0.435772 0.100000 
1.649847 -0.405193 0.100000 
1.623734 -0.375713 0.100000 
1.596735 -0.347285 0.100000 
1.568856 -0.320196 0.100000 
1.540106 -0.294590 0.100000 
1.510487 -0.270014 0.100000 
1.480002 -0.245870 0.100000 
1.448632 -0.221815 0.100000 
1.416275 -0.198545 0.100000 
1.382810 -0.177011 0.100000 
1.347803 -0.157916 0.100000 
1.309578 -0.140963 0.100000 
1.266149 -0.125605 0.100000 
1.232510 -0.116205 0.100000 
1.190198 -0.108440 0.100000 
1.133738 -0.103480 0.100000 
1.098491 -0.102418 0.100000 
1.057654 -0.102494 0.100000 
1.010541 -0.103857 0.100000 
1.826866 -0.691453 0.100000 
1.813351 -0.662411 0.100000 
1.800451 -0.636272 0.100000 
1.788125 -0.612758 0.100000 
1.765040 -0.572482 0.100000 
1.743780 -0.539346 0.100000 
1.724029 -0.511110 0.100000 
1.696519 -0.474020 0.100000 
1.670501 -0.441182 0.100000 
1.644784 -0.410856 0.100000 
1.618376 -0.381641 0.100000 
1.591088 -0.353485 0.100000 
1.562934 -0.326673 0.100000 
1.533922 -0.301345 0.100000 
1.504058 -0.277046 0.100000 
1.473348 -0.253174 0.100000 
1.441773 -0.229387 0.100000 
1.409234 -0.206377 0.100000 
1.375611 -0.185096 0.100000 
1.340470 -0.166245 0.100000 
1.302133 -0.149532 0.100000 
1.258611 -0.134411 0.100000 
1.224983 -0.125094 0.100000 
1.183072 -0.116966 0.100000 
1.127784 -0.110749 0.100000 
1.093532 -0.108583 0.100000 
1.054025 -0.107165 0.100000 
1.008627 -0.106586 0.100000 
1.823995 -0.695547 0.100000 
1.810323 -0.666598 0.100000 
1.797270 -0.640552 0.100000 
1.784798 -0.617130 0.100000 
1.761433 -0.577037 0.100000 
1.739912 -0.544079 0.100000 
1.719917 -0.516017 0.100000 
1.692069 -0.479180 0.100000 
1.665738 -0.446591 0.100000 
1.639720 -0.416519 0.100000 
1.613017 -0.387568 0.100000 
1.585442 -0.359685 0.100000 
1.557011 -0.333150 0.100000 
1.527737 -0.308100 0.100000 
1.497629 -0.284077 0.100000 
1.466693 -0.260478 0.100000 
1.434914 -0.236958 0.100000 
1.402194 -0.214209 0.100000 
1.368412 -0.193180 0.100000 
1.333137 -0.174575 0.100000 
1.294688 -0.158100 0.100000 
1.251074 -0.143217 0.100000 
1.217456 -0.133984 0.100000 
1.175945 -0.125492 0.100000 
1.121829 -0.118018 0.100000 
1.088572 -0.114748 0.100000 
1.050396 -0.111835 0.100000 
1.006713 -0.109315 0.100000 
