VARIABLES = "CoordinateX", "CoordinateY", "CoordinateZ"
Zone T="FFD_vol0" I=10 J=2 K=2
DATAPACKING=POINT
1.000000 -0.053487 0.000000 
0.973716 0.114935 0.000000 
0.899672 0.212194 0.000000 
0.763006 0.314683 0.000000 
0.615441 0.343930 0.000000 
0.384559 0.343930 0.000000 
0.236994 0.314683 0.000000 
0.100328 0.212194 0.000000 
0.026284 0.114935 0.000000 
0.000000 -0.053487 0.000000 
1.000000 -0.063487 0.000000 
0.962798 0.017052 0.000000 
0.913486 0.062895 0.000000 
0.797974 0.157865 0.000000 
0.643930 0.212410 0.000000 
0.356070 0.212410 0.000000 
0.202026 0.157865 0.000000 
0.086514 0.062895 0.000000 
0.037202 0.017052 0.000000 
0.000000 -0.063487 0.000000 
1.000000 -0.053487 0.100000 
0.973716 0.114935 0.100000 
0.899672 0.212194 0.100000 
0.763006 0.314683 0.100000 
0.615441 0.343930 0.100000 
0.384559 0.343930 0.100000 
0.236994 0.314683 0.100000 
0.100328 0.212194 0.100000 
0.026284 0.114935 0.100000 
0.000000 -0.053487 0.100000 
1.000000 -0.063487 0.100000 
0.962798 0.017052 0.100000 
0.913486 0.062895 0.100000 
0.797974 0.157865 0.100000 
0.643930 0.212410 0.100000 
0.356070 0.212410 0.100000 
0.202026 0.157865 0.100000 
0.086514 0.062895 0.100000 
0.037202 0.017052 0.100000 
0.000000 -0.063487 0.100000 
Zone T="embedding_vol" I=28 J=4 K=4
DATAPACKING=POINT
1.000000 -0.053487 0.000000 
0.990850 -0.001629 0.000000 
0.980958 0.042282 0.000000 
0.970376 0.079173 0.000000 
0.947360 0.135598 0.000000 
0.922228 0.175056 0.000000 
0.895405 0.204961 0.000000 
0.852785 0.243762 0.000000 
0.807865 0.276635 0.000000 
0.761190 0.302476 0.000000 
0.712765 0.320635 0.000000 
0.660448 0.332285 0.000000 
0.601555 0.339055 0.000000 
0.534880 0.342305 0.000000 
0.465120 0.342305 0.000000 
0.398445 0.339055 0.000000 
0.339552 0.332285 0.000000 
0.287235 0.320635 0.000000 
0.238810 0.302476 0.000000 
0.192135 0.276635 0.000000 
0.147215 0.243762 0.000000 
0.104595 0.204961 0.000000 
0.077772 0.175056 0.000000 
0.052640 0.135598 0.000000 
0.029624 0.079173 0.000000 
0.019042 0.042282 0.000000 
0.009150 -0.001629 0.000000 
0.000000 -0.053487 0.000000 
1.000000 -0.056821 0.000000 
0.989912 -0.013983 0.000000 
0.979586 0.022305 0.000000 
0.969004 0.052829 0.000000 
0.946999 0.099740 0.000000 
0.923753 0.133050 0.000000 
0.899124 0.159061 0.000000 
0.859421 0.194373 0.000000 
0.816683 0.225881 0.000000 
0.771310 0.252027 0.000000 
0.723143 0.271661 0.000000 
0.669776 0.285285 0.000000 
0.608246 0.293810 0.000000 
0.537318 0.297996 0.000000 
0.462682 0.297996 0.000000 
0.391754 0.293810 0.000000 
0.330224 0.285285 0.000000 
0.276857 0.271661 0.000000 
0.228690 0.252027 0.000000 
0.183317 0.225881 0.000000 
0.140579 0.194373 0.000000 
0.100876 0.159061 0.000000 
0.076247 0.133050 0.000000 
0.053001 0.099740 0.000000 
0.030996 0.052829 0.000000 
0.020414 0.022305 0.000000 
0.010088 -0.013983 0.000000 
0.000000 -0.056821 0.000000 
1.000000 -0.060154 0.000000 
0.988975 -0.026336 0.000000 
0.978215 0.002327 0.000000 
0.967632 0.026485 0.000000 
0.946637 0.063881 0.000000 
0.925278 0.091043 0.000000 
0.902843 0.113162 0.000000 
0.866057 0.144985 0.000000 
0.825501 0.175128 0.000000 
0.781431 0.201577 0.000000 
0.733520 0.222687 0.000000 
0.679104 0.238285 0.000000 
0.614937 0.248564 0.000000 
0.539756 0.253688 0.000000 
0.460244 0.253688 0.000000 
0.385063 0.248564 0.000000 
0.320896 0.238285 0.000000 
0.266480 0.222687 0.000000 
0.218569 0.201577 0.000000 
0.174499 0.175128 0.000000 
0.133943 0.144985 0.000000 
0.097157 0.113162 0.000000 
0.074722 0.091043 0.000000 
0.053363 0.063881 0.000000 
0.032368 0.026485 0.000000 
0.021785 0.002327 0.000000 
0.011025 -0.026336 0.000000 
0.000000 -0.060154 0.000000 
1.000000 -0.063487 0.000000 
0.988037 -0.038690 0.000000 
0.976844 -0.017650 0.000000 
0.966259 0.000142 0.000000 
0.946275 0.028023 0.000000 
0.926804 0.049036 0.000000 
0.906562 0.067262 0.000000 
0.872693 0.095596 0.000000 
0.834319 0.124374 0.000000 
0.791552 0.151127 0.000000 
0.743897 0.173713 0.000000 
0.688432 0.191285 0.000000 
0.621627 0.203319 0.000000 
0.542195 0.209379 0.000000 
0.457805 0.209379 0.000000 
0.378373 0.203319 0.000000 
0.311568 0.191285 0.000000 
0.256103 0.173713 0.000000 
0.208448 0.151127 0.000000 
0.165681 0.124374 0.000000 
0.127307 0.095596 0.000000 
0.093438 0.067262 0.000000 
0.073196 0.049036 0.000000 
0.053725 0.028023 0.000000 
0.033741 0.000142 0.000000 
0.023156 -0.017650 0.000000 
0.011963 -0.038690 0.000000 
0.000000 -0.063487 0.000000 
1.000000 -0.053487 0.033333 
0.990850 -0.001629 0.033333 
0.980958 0.042282 0.033333 
0.970376 0.079173 0.033333 
0.947360 0.135598 0.033333 
0.922228 0.175056 0.033333 
0.895405 0.204961 0.033333 
0.852785 0.243762 0.033333 
0.807865 0.276635 0.033333 
0.761190 0.302476 0.033333 
0.712765 0.320635 0.033333 
0.660448 0.332285 0.033333 
0.601555 0.339055 0.033333 
0.534880 0.342305 0.033333 
0.465120 0.342305 0.033333 
0.398445 0.339055 0.033333 
0.339552 0.332285 0.033333 
0.287235 0.320635 0.033333 
0.238810 0.302476 0.033333 
0.192135 0.276635 0.033333 
0.147215 0.243762 0.033333 
0.104595 0.204961 0.033333 
0.077772 0.175056 0.033333 
0.052640 0.135598 0.033333 
0.029624 0.079173 0.033333 
0.019042 0.042282 0.033333 
0.009150 -0.001629 0.033333 
0.000000 -0.053487 0.033333 
1.000000 -0.056821 0.033333 
0.989912 -0.013983 0.033333 
0.979586 0.022305 0.033333 
0.969004 0.052829 0.033333 
0.946999 0.099740 0.033333 
0.923753 0.133050 0.033333 
0.899124 0.159061 0.033333 
0.859421 0.194373 0.033333 
0.816683 0.225881 0.033333 
0.771310 0.252027 0.033333 
0.723143 0.271661 0.033333 
0.669776 0.285285 0.033333 
0.608246 0.293810 0.033333 
0.537318 0.297996 0.033333 
0.462682 0.297996 0.033333 
0.391754 0.293810 0.033333 
0.330224 0.285285 0.033333 
0.276857 0.271661 0.033333 
0.228690 0.252027 0.033333 
0.183317 0.225881 0.033333 
0.140579 0.194373 0.033333 
0.100876 0.159061 0.033333 
0.076247 0.133050 0.033333 
0.053001 0.099740 0.033333 
0.030996 0.052829 0.033333 
0.020414 0.022305 0.033333 
0.010088 -0.013983 0.033333 
0.000000 -0.056821 0.033333 
1.000000 -0.060154 0.033333 
0.988975 -0.026336 0.033333 
0.978215 0.002327 0.033333 
0.967632 0.026485 0.033333 
0.946637 0.063881 0.033333 
0.925278 0.091043 0.033333 
0.902843 0.113162 0.033333 
0.866057 0.144985 0.033333 
0.825501 0.175128 0.033333 
0.781431 0.201577 0.033333 
0.733520 0.222687 0.033333 
0.679104 0.238285 0.033333 
0.614937 0.248564 0.033333 
0.539756 0.253688 0.033333 
0.460244 0.253688 0.033333 
0.385063 0.248564 0.033333 
0.320896 0.238285 0.033333 
0.266480 0.222687 0.033333 
0.218569 0.201577 0.033333 
0.174499 0.175128 0.033333 
0.133943 0.144985 0.033333 
0.097157 0.113162 0.033333 
0.074722 0.091043 0.033333 
0.053363 0.063881 0.033333 
0.032368 0.026485 0.033333 
0.021785 0.002327 0.033333 
0.011025 -0.026336 0.033333 
0.000000 -0.060154 0.033333 
1.000000 -0.063487 0.033333 
0.988037 -0.038690 0.033333 
0.976844 -0.017650 0.033333 
0.966259 0.000142 0.033333 
0.946275 0.028023 0.033333 
0.926804 0.049036 0.033333 
0.906562 0.067262 0.033333 
0.872693 0.095596 0.033333 
0.834319 0.124374 0.033333 
0.791552 0.151127 0.033333 
0.743897 0.173713 0.033333 
0.688432 0.191285 0.033333 
0.621627 0.203319 0.033333 
0.542195 0.209379 0.033333 
0.457805 0.209379 0.033333 
0.378373 0.203319 0.033333 
0.311568 0.191285 0.033333 
0.256103 0.173713 0.033333 
0.208448 0.151127 0.033333 
0.165681 0.124374 0.033333 
0.127307 0.095596 0.033333 
0.093438 0.067262 0.033333 
0.073196 0.049036 0.033333 
0.053725 0.028023 0.033333 
0.033741 0.000142 0.033333 
0.023156 -0.017650 0.033333 
0.011963 -0.038690 0.033333 
0.000000 -0.063487 0.033333 
1.000000 -0.053487 0.066667 
0.990850 -0.001629 0.066667 
0.980958 0.042282 0.066667 
0.970376 0.079173 0.066667 
0.947360 0.135598 0.066667 
0.922228 0.175056 0.066667 
0.895405 0.204961 0.066667 
0.852785 0.243762 0.066667 
0.807865 0.276635 0.066667 
0.761190 0.302476 0.066667 
0.712765 0.320635 0.066667 
0.660448 0.332285 0.066667 
0.601555 0.339055 0.066667 
0.534880 0.342305 0.066667 
0.465120 0.342305 0.066667 
0.398445 0.339055 0.066667 
0.339552 0.332285 0.066667 
0.287235 0.320635 0.066667 
0.238810 0.302476 0.066667 
0.192135 0.276635 0.066667 
0.147215 0.243762 0.066667 
0.104595 0.204961 0.066667 
0.077772 0.175056 0.066667 
0.052640 0.135598 0.066667 
0.029624 0.079173 0.066667 
0.019042 0.042282 0.066667 
0.009150 -0.001629 0.066667 
0.000000 -0.053487 0.066667 
1.000000 -0.056821 0.066667 
0.989912 -0.013983 0.066667 
0.979586 0.022305 0.066667 
0.969004 0.052829 0.066667 
0.946999 0.099740 0.066667 
0.923753 0.133050 0.066667 
0.899124 0.159061 0.066667 
0.859421 0.194373 0.066667 
0.816683 0.225881 0.066667 
0.771310 0.252027 0.066667 
0.723143 0.271661 0.066667 
0.669776 0.285285 0.066667 
0.608246 0.293810 0.066667 
0.537318 0.297996 0.066667 
0.462682 0.297996 0.066667 
0.391754 0.293810 0.066667 
0.330224 0.285285 0.066667 
0.276857 0.271661 0.066667 
0.228690 0.252027 0.066667 
0.183317 0.225881 0.066667 
0.140579 0.194373 0.066667 
0.100876 0.159061 0.066667 
0.076247 0.133050 0.066667 
0.053001 0.099740 0.066667 
0.030996 0.052829 0.066667 
0.020414 0.022305 0.066667 
0.010088 -0.013983 0.066667 
0.000000 -0.056821 0.066667 
1.000000 -0.060154 0.066667 
0.988975 -0.026336 0.066667 
0.978215 0.002327 0.066667 
0.967632 0.026485 0.066667 
0.946637 0.063881 0.066667 
0.925278 0.091043 0.066667 
0.902843 0.113162 0.066667 
0.866057 0.144985 0.066667 
0.825501 0.175128 0.066667 
0.781431 0.201577 0.066667 
0.733520 0.222687 0.066667 
0.679104 0.238285 0.066667 
0.614937 0.248564 0.066667 
0.539756 0.253688 0.066667 
0.460244 0.253688 0.066667 
0.385063 0.248564 0.066667 
0.320896 0.238285 0.066667 
0.266480 0.222687 0.066667 
0.218569 0.201577 0.066667 
0.174499 0.175128 0.066667 
0.133943 0.144985 0.066667 
0.097157 0.113162 0.066667 
0.074722 0.091043 0.066667 
0.053363 0.063881 0.066667 
0.032368 0.026485 0.066667 
0.021785 0.002327 0.066667 
0.011025 -0.026336 0.066667 
0.000000 -0.060154 0.066667 
1.000000 -0.063487 0.066667 
0.988037 -0.038690 0.066667 
0.976844 -0.017650 0.066667 
0.966259 0.000142 0.066667 
0.946275 0.028023 0.066667 
0.926804 0.049036 0.066667 
0.906562 0.067262 0.066667 
0.872693 0.095596 0.066667 
0.834319 0.124374 0.066667 
0.791552 0.151127 0.066667 
0.743897 0.173713 0.066667 
0.688432 0.191285 0.066667 
0.621627 0.203319 0.066667 
0.542195 0.209379 0.066667 
0.457805 0.209379 0.066667 
0.378373 0.203319 0.066667 
0.311568 0.191285 0.066667 
0.256103 0.173713 0.066667 
0.208448 0.151127 0.066667 
0.165681 0.124374 0.066667 
0.127307 0.095596 0.066667 
0.093438 0.067262 0.066667 
0.073196 0.049036 0.066667 
0.053725 0.028023 0.066667 
0.033741 0.000142 0.066667 
0.023156 -0.017650 0.066667 
0.011963 -0.038690 0.066667 
0.000000 -0.063487 0.066667 
1.000000 -0.053487 0.100000 
0.990850 -0.001629 0.100000 
0.980958 0.042282 0.100000 
0.970376 0.079173 0.100000 
0.947360 0.135598 0.100000 
0.922228 0.175056 0.100000 
0.895405 0.204961 0.100000 
0.852785 0.243762 0.100000 
0.807865 0.276635 0.100000 
0.761190 0.302476 0.100000 
0.712765 0.320635 0.100000 
0.660448 0.332285 0.100000 
0.601555 0.339055 0.100000 
0.534880 0.342305 0.100000 
0.465120 0.342305 0.100000 
0.398445 0.339055 0.100000 
0.339552 0.332285 0.100000 
0.287235 0.320635 0.100000 
0.238810 0.302476 0.100000 
0.192135 0.276635 0.100000 
0.147215 0.243762 0.100000 
0.104595 0.204961 0.100000 
0.077772 0.175056 0.100000 
0.052640 0.135598 0.100000 
0.029624 0.079173 0.100000 
0.019042 0.042282 0.100000 
0.009150 -0.001629 0.100000 
0.000000 -0.053487 0.100000 
1.000000 -0.056821 0.100000 
0.989912 -0.013983 0.100000 
0.979586 0.022305 0.100000 
0.969004 0.052829 0.100000 
0.946999 0.099740 0.100000 
0.923753 0.133050 0.100000 
0.899124 0.159061 0.100000 
0.859421 0.194373 0.100000 
0.816683 0.225881 0.100000 
0.771310 0.252027 0.100000 
0.723143 0.271661 0.100000 
0.669776 0.285285 0.100000 
0.608246 0.293810 0.100000 
0.537318 0.297996 0.100000 
0.462682 0.297996 0.100000 
0.391754 0.293810 0.100000 
0.330224 0.285285 0.100000 
0.276857 0.271661 0.100000 
0.228690 0.252027 0.100000 
0.183317 0.225881 0.100000 
0.140579 0.194373 0.100000 
0.100876 0.159061 0.100000 
0.076247 0.133050 0.100000 
0.053001 0.099740 0.100000 
0.030996 0.052829 0.100000 
0.020414 0.022305 0.100000 
0.010088 -0.013983 0.100000 
0.000000 -0.056821 0.100000 
1.000000 -0.060154 0.100000 
0.988975 -0.026336 0.100000 
0.978215 0.002327 0.100000 
0.967632 0.026485 0.100000 
0.946637 0.063881 0.100000 
0.925278 0.091043 0.100000 
0.902843 0.113162 0.100000 
0.866057 0.144985 0.100000 
0.825501 0.175128 0.100000 
0.781431 0.201577 0.100000 
0.733520 0.222687 0.100000 
0.679104 0.238285 0.100000 
0.614937 0.248564 0.100000 
0.539756 0.253688 0.100000 
0.460244 0.253688 0.100000 
0.385063 0.248564 0.100000 
0.320896 0.238285 0.100000 
0.266480 0.222687 0.100000 
0.218569 0.201577 0.100000 
0.174499 0.175128 0.100000 
0.133943 0.144985 0.100000 
0.097157 0.113162 0.100000 
0.074722 0.091043 0.100000 
0.053363 0.063881 0.100000 
0.032368 0.026485 0.100000 
0.021785 0.002327 0.100000 
0.011025 -0.026336 0.100000 
0.000000 -0.060154 0.100000 
1.000000 -0.063487 0.100000 
0.988037 -0.038690 0.100000 
0.976844 -0.017650 0.100000 
0.966259 0.000142 0.100000 
0.946275 0.028023 0.100000 
0.926804 0.049036 0.100000 
0.906562 0.067262 0.100000 
0.872693 0.095596 0.100000 
0.834319 0.124374 0.100000 
0.791552 0.151127 0.100000 
0.743897 0.173713 0.100000 
0.688432 0.191285 0.100000 
0.621627 0.203319 0.100000 
0.542195 0.209379 0.100000 
0.457805 0.209379 0.100000 
0.378373 0.203319 0.100000 
0.311568 0.191285 0.100000 
0.256103 0.173713 0.100000 
0.208448 0.151127 0.100000 
0.165681 0.124374 0.100000 
0.127307 0.095596 0.100000 
0.093438 0.067262 0.100000 
0.073196 0.049036 0.100000 
0.053725 0.028023 0.100000 
0.033741 0.000142 0.100000 
0.023156 -0.017650 0.100000 
0.011963 -0.038690 0.100000 
0.000000 -0.063487 0.100000 
Zone T="FFD_vol1" I=10 J=2 K=2
DATAPACKING=POINT
1.780975 -0.866919 0.000000 
1.742257 -0.684183 0.000000 
1.679851 -0.583881 0.000000 
1.609002 -0.496871 0.000000 
1.530111 -0.404832 0.000000 
1.442900 -0.332835 0.000000 
1.347856 -0.266984 0.000000 
1.241208 -0.192708 0.000000 
1.126898 -0.145153 0.000000 
0.969233 -0.204562 0.000000 
1.772194 -0.879081 0.000000 
1.732024 -0.697168 0.000000 
1.667155 -0.598483 0.000000 
1.593569 -0.513596 0.000000 
1.512009 -0.424014 0.000000 
1.422545 -0.354499 0.000000 
1.325815 -0.290976 0.000000 
1.218165 -0.218811 0.000000 
1.103471 -0.172675 0.000000 
0.963380 -0.212670 0.000000 
1.780975 -0.866919 0.100000 
1.742257 -0.684183 0.100000 
1.679851 -0.583881 0.100000 
1.609002 -0.496871 0.100000 
1.530111 -0.404832 0.100000 
1.442900 -0.332835 0.100000 
1.347856 -0.266984 0.100000 
1.241208 -0.192708 0.100000 
1.126898 -0.145153 0.100000 
0.969233 -0.204562 0.100000 
1.772194 -0.879081 0.100000 
1.732024 -0.697168 0.100000 
1.667155 -0.598483 0.100000 
1.593569 -0.513596 0.100000 
1.512009 -0.424014 0.100000 
1.422545 -0.354499 0.100000 
1.325815 -0.290976 0.100000 
1.218165 -0.218811 0.100000 
1.103471 -0.172675 0.100000 
0.963380 -0.212670 0.100000 
Zone T="embedding_vol" I=28 J=4 K=4
DATAPACKING=POINT
1.780975 -0.866919 0.000000 
1.768342 -0.810750 0.000000 
1.756235 -0.763398 0.000000 
1.744624 -0.723859 0.000000 
1.722765 -0.664202 0.000000 
1.702520 -0.623745 0.000000 
1.683644 -0.594455 0.000000 
1.657309 -0.557980 0.000000 
1.632362 -0.526018 0.000000 
1.607662 -0.496033 0.000000 
1.582257 -0.466067 0.000000 
1.555948 -0.436471 0.000000 
1.528724 -0.408173 0.000000 
1.500582 -0.381861 0.000000 
1.471532 -0.357261 0.000000 
1.441595 -0.333859 0.000000 
1.410760 -0.311136 0.000000 
1.378916 -0.288556 0.000000 
1.345922 -0.265580 0.000000 
1.311334 -0.241828 0.000000 
1.273485 -0.217560 0.000000 
1.230405 -0.193199 0.000000 
1.196919 -0.178000 0.000000 
1.154325 -0.168392 0.000000 
1.096717 -0.169819 0.000000 
1.060437 -0.176372 0.000000 
1.018189 -0.187727 0.000000 
0.969233 -0.204562 0.000000 
1.778048 -0.870973 0.000000 
1.765257 -0.814895 0.000000 
1.752997 -0.767634 0.000000 
1.741237 -0.728185 0.000000 
1.719096 -0.668707 0.000000 
1.698588 -0.628425 0.000000 
1.679466 -0.599306 0.000000 
1.652789 -0.563079 0.000000 
1.627525 -0.531362 0.000000 
1.602521 -0.501627 0.000000 
1.576818 -0.471921 0.000000 
1.550217 -0.442593 0.000000 
1.522713 -0.414568 0.000000 
1.494305 -0.388531 0.000000 
1.465008 -0.364204 0.000000 
1.434841 -0.341072 0.000000 
1.403799 -0.318613 0.000000 
1.371769 -0.296291 0.000000 
1.338613 -0.273565 0.000000 
1.303887 -0.250056 0.000000 
1.265924 -0.226026 0.000000 
1.222748 -0.201901 0.000000 
1.189271 -0.186786 0.000000 
1.147083 -0.176819 0.000000 
1.090664 -0.177006 0.000000 
1.055393 -0.182469 0.000000 
1.014496 -0.192347 0.000000 
0.967282 -0.207265 0.000000 
1.775121 -0.875027 0.000000 
1.762171 -0.819041 0.000000 
1.749758 -0.771870 0.000000 
1.737850 -0.732512 0.000000 
1.715427 -0.673211 0.000000 
1.694656 -0.633105 0.000000 
1.675287 -0.604156 0.000000 
1.648269 -0.568178 0.000000 
1.622687 -0.536706 0.000000 
1.597380 -0.507220 0.000000 
1.571379 -0.477774 0.000000 
1.544487 -0.448715 0.000000 
1.516703 -0.420963 0.000000 
1.488029 -0.395201 0.000000 
1.458483 -0.371147 0.000000 
1.428087 -0.348285 0.000000 
1.396837 -0.326090 0.000000 
1.364621 -0.304026 0.000000 
1.331304 -0.281550 0.000000 
1.296441 -0.258284 0.000000 
1.258362 -0.234493 0.000000 
1.215091 -0.210603 0.000000 
1.181624 -0.195571 0.000000 
1.139840 -0.185247 0.000000 
1.084610 -0.184192 0.000000 
1.050350 -0.188566 0.000000 
1.010803 -0.196968 0.000000 
0.965331 -0.209967 0.000000 
1.772194 -0.879081 0.000000 
1.759086 -0.823186 0.000000 
1.746519 -0.776106 0.000000 
1.734463 -0.736838 0.000000 
1.711758 -0.677716 0.000000 
1.690723 -0.637784 0.000000 
1.671108 -0.609007 0.000000 
1.643748 -0.573277 0.000000 
1.617850 -0.542050 0.000000 
1.592240 -0.512814 0.000000 
1.565940 -0.483628 0.000000 
1.538756 -0.454837 0.000000 
1.510692 -0.427359 0.000000 
1.481752 -0.401870 0.000000 
1.451959 -0.378090 0.000000 
1.421334 -0.355497 0.000000 
1.389875 -0.333567 0.000000 
1.357474 -0.311760 0.000000 
1.323995 -0.289535 0.000000 
1.288995 -0.266512 0.000000 
1.250801 -0.242959 0.000000 
1.207433 -0.219305 0.000000 
1.173976 -0.204357 0.000000 
1.132598 -0.193675 0.000000 
1.078557 -0.191379 0.000000 
1.045306 -0.194663 0.000000 
1.007111 -0.201588 0.000000 
0.963380 -0.212670 0.000000 
1.780975 -0.866919 0.033333 
1.768342 -0.810750 0.033333 
1.756235 -0.763398 0.033333 
1.744624 -0.723859 0.033333 
1.722765 -0.664202 0.033333 
1.702520 -0.623745 0.033333 
1.683644 -0.594455 0.033333 
1.657309 -0.557980 0.033333 
1.632362 -0.526018 0.033333 
1.607662 -0.496033 0.033333 
1.582257 -0.466067 0.033333 
1.555948 -0.436471 0.033333 
1.528724 -0.408173 0.033333 
1.500582 -0.381861 0.033333 
1.471532 -0.357261 0.033333 
1.441595 -0.333859 0.033333 
1.410760 -0.311136 0.033333 
1.378916 -0.288556 0.033333 
1.345922 -0.265580 0.033333 
1.311334 -0.241828 0.033333 
1.273485 -0.217560 0.033333 
1.230405 -0.193199 0.033333 
1.196919 -0.178000 0.033333 
1.154325 -0.168392 0.033333 
1.096717 -0.169819 0.033333 
1.060437 -0.176372 0.033333 
1.018189 -0.187727 0.033333 
0.969233 -0.204562 0.033333 
1.778048 -0.870973 0.033333 
1.765257 -0.814895 0.033333 
1.752997 -0.767634 0.033333 
1.741237 -0.728185 0.033333 
1.719096 -0.668707 0.033333 
1.698588 -0.628425 0.033333 
1.679466 -0.599306 0.033333 
1.652789 -0.563079 0.033333 
1.627525 -0.531362 0.033333 
1.602521 -0.501627 0.033333 
1.576818 -0.471921 0.033333 
1.550217 -0.442593 0.033333 
1.522713 -0.414568 0.033333 
1.494305 -0.388531 0.033333 
1.465008 -0.364204 0.033333 
1.434841 -0.341072 0.033333 
1.403799 -0.318613 0.033333 
1.371769 -0.296291 0.033333 
1.338613 -0.273565 0.033333 
1.303887 -0.250056 0.033333 
1.265924 -0.226026 0.033333 
1.222748 -0.201901 0.033333 
1.189271 -0.186786 0.033333 
1.147083 -0.176819 0.033333 
1.090664 -0.177006 0.033333 
1.055393 -0.182469 0.033333 
1.014496 -0.192347 0.033333 
0.967282 -0.207265 0.033333 
1.775121 -0.875027 0.033333 
1.762171 -0.819041 0.033333 
1.749758 -0.771870 0.033333 
1.737850 -0.732512 0.033333 
1.715427 -0.673211 0.033333 
1.694656 -0.633105 0.033333 
1.675287 -0.604156 0.033333 
1.648269 -0.568178 0.033333 
1.622687 -0.536706 0.033333 
1.597380 -0.507220 0.033333 
1.571379 -0.477774 0.033333 
1.544487 -0.448715 0.033333 
1.516703 -0.420963 0.033333 
1.488029 -0.395201 0.033333 
1.458483 -0.371147 0.033333 
1.428087 -0.348285 0.033333 
1.396837 -0.326090 0.033333 
1.364621 -0.304026 0.033333 
1.331304 -0.281550 0.033333 
1.296441 -0.258284 0.033333 
1.258362 -0.234493 0.033333 
1.215091 -0.210603 0.033333 
1.181624 -0.195571 0.033333 
1.139840 -0.185247 0.033333 
1.084610 -0.184192 0.033333 
1.050350 -0.188566 0.033333 
1.010803 -0.196968 0.033333 
0.965331 -0.209967 0.033333 
1.772194 -0.879081 0.033333 
1.759086 -0.823186 0.033333 
1.746519 -0.776106 0.033333 
1.734463 -0.736838 0.033333 
1.711758 -0.677716 0.033333 
1.690723 -0.637784 0.033333 
1.671108 -0.609007 0.033333 
1.643748 -0.573277 0.033333 
1.617850 -0.542050 0.033333 
1.592240 -0.512814 0.033333 
1.565940 -0.483628 0.033333 
1.538756 -0.454837 0.033333 
1.510692 -0.427359 0.033333 
1.481752 -0.401870 0.033333 
1.451959 -0.378090 0.033333 
1.421334 -0.355497 0.033333 
1.389875 -0.333567 0.033333 
1.357474 -0.311760 0.033333 
1.323995 -0.289535 0.033333 
1.288995 -0.266512 0.033333 
1.250801 -0.242959 0.033333 
1.207433 -0.219305 0.033333 
1.173976 -0.204357 0.033333 
1.132598 -0.193675 0.033333 
1.078557 -0.191379 0.033333 
1.045306 -0.194663 0.033333 
1.007111 -0.201588 0.033333 
0.963380 -0.212670 0.033333 
1.780975 -0.866919 0.066667 
1.768342 -0.810750 0.066667 
1.756235 -0.763398 0.066667 
1.744624 -0.723859 0.066667 
1.722765 -0.664202 0.066667 
1.702520 -0.623745 0.066667 
1.683644 -0.594455 0.066667 
1.657309 -0.557980 0.066667 
1.632362 -0.526018 0.066667 
1.607662 -0.496033 0.066667 
1.582257 -0.466067 0.066667 
1.555948 -0.436471 0.066667 
1.528724 -0.408173 0.066667 
1.500582 -0.381861 0.066667 
1.471532 -0.357261 0.066667 
1.441595 -0.333859 0.066667 
1.410760 -0.311136 0.066667 
1.378916 -0.288556 0.066667 
1.345922 -0.265580 0.066667 
1.311334 -0.241828 0.066667 
1.273485 -0.217560 0.066667 
1.230405 -0.193199 0.066667 
1.196919 -0.178000 0.066667 
1.154325 -0.168392 0.066667 
1.096717 -0.169819 0.066667 
1.060437 -0.176372 0.066667 
1.018189 -0.187727 0.066667 
0.969233 -0.204562 0.066667 
1.778048 -0.870973 0.066667 
1.765257 -0.814895 0.066667 
1.752997 -0.767634 0.066667 
1.741237 -0.728185 0.066667 
1.719096 -0.668707 0.066667 
1.698588 -0.628425 0.066667 
1.679466 -0.599306 0.066667 
1.652789 -0.563079 0.066667 
1.627525 -0.531362 0.066667 
1.602521 -0.501627 0.066667 
1.576818 -0.471921 0.066667 
1.550217 -0.442593 0.066667 
1.522713 -0.414568 0.066667 
1.494305 -0.388531 0.066667 
1.465008 -0.364204 0.066667 
1.434841 -0.341072 0.066667 
1.403799 -0.318613 0.066667 
1.371769 -0.296291 0.066667 
1.338613 -0.273565 0.066667 
1.303887 -0.250056 0.066667 
1.265924 -0.226026 0.066667 
1.222748 -0.201901 0.066667 
1.189271 -0.186786 0.066667 
1.147083 -0.176819 0.066667 
1.090664 -0.177006 0.066667 
1.055393 -0.182469 0.066667 
1.014496 -0.192347 0.066667 
0.967282 -0.207265 0.066667 
1.775121 -0.875027 0.066667 
1.762171 -0.819041 0.066667 
1.749758 -0.771870 0.066667 
1.737850 -0.732512 0.066667 
1.715427 -0.673211 0.066667 
1.694656 -0.633105 0.066667 
1.675287 -0.604156 0.066667 
1.648269 -0.568178 0.066667 
1.622687 -0.536706 0.066667 
1.597380 -0.507220 0.066667 
1.571379 -0.477774 0.066667 
1.544487 -0.448715 0.066667 
1.516703 -0.420963 0.066667 
1.488029 -0.395201 0.066667 
1.458483 -0.371147 0.066667 
1.428087 -0.348285 0.066667 
1.396837 -0.326090 0.066667 
1.364621 -0.304026 0.066667 
1.331304 -0.281550 0.066667 
1.296441 -0.258284 0.066667 
1.258362 -0.234493 0.066667 
1.215091 -0.210603 0.066667 
1.181624 -0.195571 0.066667 
1.139840 -0.185247 0.066667 
1.084610 -0.184192 0.066667 
1.050350 -0.188566 0.066667 
1.010803 -0.196968 0.066667 
0.965331 -0.209967 0.066667 
1.772194 -0.879081 0.066667 
1.759086 -0.823186 0.066667 
1.746519 -0.776106 0.066667 
1.734463 -0.736838 0.066667 
1.711758 -0.677716 0.066667 
1.690723 -0.637784 0.066667 
1.671108 -0.609007 0.066667 
1.643748 -0.573277 0.066667 
1.617850 -0.542050 0.066667 
1.592240 -0.512814 0.066667 
1.565940 -0.483628 0.066667 
1.538756 -0.454837 0.066667 
1.510692 -0.427359 0.066667 
1.481752 -0.401870 0.066667 
1.451959 -0.378090 0.066667 
1.421334 -0.355497 0.066667 
1.389875 -0.333567 0.066667 
1.357474 -0.311760 0.066667 
1.323995 -0.289535 0.066667 
1.288995 -0.266512 0.066667 
1.250801 -0.242959 0.066667 
1.207433 -0.219305 0.066667 
1.173976 -0.204357 0.066667 
1.132598 -0.193675 0.066667 
1.078557 -0.191379 0.066667 
1.045306 -0.194663 0.066667 
1.007111 -0.201588 0.066667 
0.963380 -0.212670 0.066667 
1.780975 -0.866919 0.100000 
1.768342 -0.810750 0.100000 
1.756235 -0.763398 0.100000 
1.744624 -0.723859 0.100000 
1.722765 -0.664202 0.100000 
1.702520 -0.623745 0.100000 
1.683644 -0.594455 0.100000 
1.657309 -0.557980 0.100000 
1.632362 -0.526018 0.100000 
1.607662 -0.496033 0.100000 
1.582257 -0.466067 0.100000 
1.555948 -0.436471 0.100000 
1.528724 -0.408173 0.100000 
1.500582 -0.381861 0.100000 
1.471532 -0.357261 0.100000 
1.441595 -0.333859 0.100000 
1.410760 -0.311136 0.100000 
1.378916 -0.288556 0.100000 
1.345922 -0.265580 0.100000 
1.311334 -0.241828 0.100000 
1.273485 -0.217560 0.100000 
1.230405 -0.193199 0.100000 
1.196919 -0.178000 0.100000 
1.154325 -0.168392 0.100000 
1.096717 -0.169819 0.100000 
1.060437 -0.176372 0.100000 
1.018189 -0.187727 0.100000 
0.969233 -0.204562 0.100000 
1.778048 -0.870973 0.100000 
1.765257 -0.814895 0.100000 
1.752997 -0.767634 0.100000 
1.741237 -0.728185 0.100000 
1.719096 -0.668707 0.100000 
1.698588 -0.628425 0.100000 
1.679466 -0.599306 0.100000 
1.652789 -0.563079 0.100000 
1.627525 -0.531362 0.100000 
1.602521 -0.501627 0.100000 
1.576818 -0.471921 0.100000 
1.550217 -0.442593 0.100000 
1.522713 -0.414568 0.100000 
1.494305 -0.388531 0.100000 
1.465008 -0.364204 0.100000 
1.434841 -0.341072 0.100000 
1.403799 -0.318613 0.100000 
1.371769 -0.296291 0.100000 
1.338613 -0.273565 0.100000 
1.303887 -0.250056 0.100000 
1.265924 -0.226026 0.100000 
1.222748 -0.201901 0.100000 
1.189271 -0.186786 0.100000 
1.147083 -0.176819 0.100000 
1.090664 -0.177006 0.100000 
1.055393 -0.182469 0.100000 
1.014496 -0.192347 0.100000 
0.967282 -0.207265 0.100000 
1.775121 -0.875027 0.100000 
1.762171 -0.819041 0.100000 
1.749758 -0.771870 0.100000 
1.737850 -0.732512 0.100000 
1.715427 -0.673211 0.100000 
1.694656 -0.633105 0.100000 
1.675287 -0.604156 0.100000 
1.648269 -0.568178 0.100000 
1.622687 -0.536706 0.100000 
1.597380 -0.507220 0.100000 
1.571379 -0.477774 0.100000 
1.544487 -0.448715 0.100000 
1.516703 -0.420963 0.100000 
1.488029 -0.395201 0.100000 
1.458483 -0.371147 0.100000 
1.428087 -0.348285 0.100000 
1.396837 -0.326090 0.100000 
1.364621 -0.304026 0.100000 
1.331304 -0.281550 0.100000 
1.296441 -0.258284 0.100000 
1.258362 -0.234493 0.100000 
1.215091 -0.210603 0.100000 
1.181624 -0.195571 0.100000 
1.139840 -0.185247 0.100000 
1.084610 -0.184192 0.100000 
1.050350 -0.188566 0.100000 
1.010803 -0.196968 0.100000 
0.965331 -0.209967 0.100000 
1.772194 -0.879081 0.100000 
1.759086 -0.823186 0.100000 
1.746519 -0.776106 0.100000 
1.734463 -0.736838 0.100000 
1.711758 -0.677716 0.100000 
1.690723 -0.637784 0.100000 
1.671108 -0.609007 0.100000 
1.643748 -0.573277 0.100000 
1.617850 -0.542050 0.100000 
1.592240 -0.512814 0.100000 
1.565940 -0.483628 0.100000 
1.538756 -0.454837 0.100000 
1.510692 -0.427359 0.100000 
1.481752 -0.401870 0.100000 
1.451959 -0.378090 0.100000 
1.421334 -0.355497 0.100000 
1.389875 -0.333567 0.100000 
1.357474 -0.311760 0.100000 
1.323995 -0.289535 0.100000 
1.288995 -0.266512 0.100000 
1.250801 -0.242959 0.100000 
1.207433 -0.219305 0.100000 
1.173976 -0.204357 0.100000 
1.132598 -0.193675 0.100000 
1.078557 -0.191379 0.100000 
1.045306 -0.194663 0.100000 
1.007111 -0.201588 0.100000 
0.963380 -0.212670 0.100000 
