VARIABLES = "CoordinateX", "CoordinateY", "CoordinateZ"
Zone T="FFD_vol0" I=10 J=2 K=2
DATAPACKING=POINT
1.000000 -0.019499 0.000000 
0.973716 0.104636 0.000000 
0.899672 0.197366 0.000000 
0.763006 0.303594 0.000000 
0.615441 0.337045 0.000000 
0.384559 0.337045 0.000000 
0.236994 0.303594 0.000000 
0.100328 0.197366 0.000000 
0.026284 0.104636 0.000000 
0.000000 -0.019499 0.000000 
1.000000 -0.029499 0.000000 
0.962798 0.006752 0.000000 
0.913486 0.048067 0.000000 
0.797974 0.146776 0.000000 
0.643930 0.205525 0.000000 
0.356070 0.205525 0.000000 
0.202026 0.146776 0.000000 
0.086514 0.048067 0.000000 
0.037202 0.006752 0.000000 
0.000000 -0.029499 0.000000 
1.000000 -0.019499 0.100000 
0.973716 0.104636 0.100000 
0.899672 0.197366 0.100000 
0.763006 0.303594 0.100000 
0.615441 0.337045 0.100000 
0.384559 0.337045 0.100000 
0.236994 0.303594 0.100000 
0.100328 0.197366 0.100000 
0.026284 0.104636 0.100000 
0.000000 -0.019499 0.100000 
1.000000 -0.029499 0.100000 
0.962798 0.006752 0.100000 
0.913486 0.048067 0.100000 
0.797974 0.146776 0.100000 
0.643930 0.205525 0.100000 
0.356070 0.205525 0.100000 
0.202026 0.146776 0.100000 
0.086514 0.048067 0.100000 
0.037202 0.006752 0.100000 
0.000000 -0.029499 0.100000 
Zone T="embedding_vol" I=28 J=4 K=4
DATAPACKING=POINT
1.000000 -0.019499 0.000000 
0.990850 0.019098 0.000000 
0.980958 0.052529 0.000000 
0.970376 0.081390 0.000000 
0.947360 0.127779 0.000000 
0.922228 0.163025 0.000000 
0.895405 0.191888 0.000000 
0.852785 0.230703 0.000000 
0.807865 0.264388 0.000000 
0.761190 0.291464 0.000000 
0.712765 0.310944 0.000000 
0.660448 0.323794 0.000000 
0.601555 0.331470 0.000000 
0.534880 0.335187 0.000000 
0.465120 0.335187 0.000000 
0.398445 0.331470 0.000000 
0.339552 0.323794 0.000000 
0.287235 0.310944 0.000000 
0.238810 0.291464 0.000000 
0.192135 0.264388 0.000000 
0.147215 0.230703 0.000000 
0.104595 0.191888 0.000000 
0.077772 0.163025 0.000000 
0.052640 0.127779 0.000000 
0.029624 0.081390 0.000000 
0.019042 0.052529 0.000000 
0.009150 0.019098 0.000000 
0.000000 -0.019499 0.000000 
1.000000 -0.022832 0.000000 
0.989912 0.006745 0.000000 
0.979586 0.032552 0.000000 
0.969004 0.055046 0.000000 
0.946999 0.091921 0.000000 
0.923753 0.121018 0.000000 
0.899124 0.145989 0.000000 
0.859421 0.181314 0.000000 
0.816683 0.213634 0.000000 
0.771310 0.241015 0.000000 
0.723143 0.261970 0.000000 
0.669776 0.276794 0.000000 
0.608246 0.286225 0.000000 
0.537318 0.290878 0.000000 
0.462682 0.290878 0.000000 
0.391754 0.286225 0.000000 
0.330224 0.276794 0.000000 
0.276857 0.261970 0.000000 
0.228690 0.241015 0.000000 
0.183317 0.213634 0.000000 
0.140579 0.181314 0.000000 
0.100876 0.145989 0.000000 
0.076247 0.121018 0.000000 
0.053001 0.091921 0.000000 
0.030996 0.055046 0.000000 
0.020414 0.032552 0.000000 
0.010088 0.006745 0.000000 
0.000000 -0.022832 0.000000 
1.000000 -0.026165 0.000000 
0.988975 -0.005609 0.000000 
0.978215 0.012574 0.000000 
0.967632 0.028702 0.000000 
0.946637 0.056063 0.000000 
0.925278 0.079012 0.000000 
0.902843 0.100089 0.000000 
0.866057 0.131926 0.000000 
0.825501 0.162880 0.000000 
0.781431 0.190565 0.000000 
0.733520 0.212997 0.000000 
0.679104 0.229794 0.000000 
0.614937 0.240979 0.000000 
0.539756 0.246570 0.000000 
0.460244 0.246570 0.000000 
0.385063 0.240979 0.000000 
0.320896 0.229794 0.000000 
0.266480 0.212997 0.000000 
0.218569 0.190565 0.000000 
0.174499 0.162880 0.000000 
0.133943 0.131926 0.000000 
0.097157 0.100089 0.000000 
0.074722 0.079012 0.000000 
0.053363 0.056063 0.000000 
0.032368 0.028702 0.000000 
0.021785 0.012574 0.000000 
0.011025 -0.005609 0.000000 
0.000000 -0.026165 0.000000 
1.000000 -0.029499 0.000000 
0.988037 -0.017963 0.000000 
0.976844 -0.007403 0.000000 
0.966259 0.002359 0.000000 
0.946275 0.020205 0.000000 
0.926804 0.037005 0.000000 
0.906562 0.054190 0.000000 
0.872693 0.082537 0.000000 
0.834319 0.112126 0.000000 
0.791552 0.140116 0.000000 
0.743897 0.164023 0.000000 
0.688432 0.182794 0.000000 
0.621627 0.195734 0.000000 
0.542195 0.202261 0.000000 
0.457805 0.202261 0.000000 
0.378373 0.195734 0.000000 
0.311568 0.182794 0.000000 
0.256103 0.164023 0.000000 
0.208448 0.140116 0.000000 
0.165681 0.112126 0.000000 
0.127307 0.082537 0.000000 
0.093438 0.054190 0.000000 
0.073196 0.037005 0.000000 
0.053725 0.020205 0.000000 
0.033741 0.002359 0.000000 
0.023156 -0.007403 0.000000 
0.011963 -0.017963 0.000000 
0.000000 -0.029499 0.000000 
1.000000 -0.019499 0.033333 
0.990850 0.019098 0.033333 
0.980958 0.052529 0.033333 
0.970376 0.081390 0.033333 
0.947360 0.127779 0.033333 
0.922228 0.163025 0.033333 
0.895405 0.191888 0.033333 
0.852785 0.230703 0.033333 
0.807865 0.264388 0.033333 
0.761190 0.291464 0.033333 
0.712765 0.310944 0.033333 
0.660448 0.323794 0.033333 
0.601555 0.331470 0.033333 
0.534880 0.335187 0.033333 
0.465120 0.335187 0.033333 
0.398445 0.331470 0.033333 
0.339552 0.323794 0.033333 
0.287235 0.310944 0.033333 
0.238810 0.291464 0.033333 
0.192135 0.264388 0.033333 
0.147215 0.230703 0.033333 
0.104595 0.191888 0.033333 
0.077772 0.163025 0.033333 
0.052640 0.127779 0.033333 
0.029624 0.081390 0.033333 
0.019042 0.052529 0.033333 
0.009150 0.019098 0.033333 
0.000000 -0.019499 0.033333 
1.000000 -0.022832 0.033333 
0.989912 0.006745 0.033333 
0.979586 0.032552 0.033333 
0.969004 0.055046 0.033333 
0.946999 0.091921 0.033333 
0.923753 0.121018 0.033333 
0.899124 0.145989 0.033333 
0.859421 0.181314 0.033333 
0.816683 0.213634 0.033333 
0.771310 0.241015 0.033333 
0.723143 0.261970 0.033333 
0.669776 0.276794 0.033333 
0.608246 0.286225 0.033333 
0.537318 0.290878 0.033333 
0.462682 0.290878 0.033333 
0.391754 0.286225 0.033333 
0.330224 0.276794 0.033333 
0.276857 0.261970 0.033333 
0.228690 0.241015 0.033333 
0.183317 0.213634 0.033333 
0.140579 0.181314 0.033333 
0.100876 0.145989 0.033333 
0.076247 0.121018 0.033333 
0.053001 0.091921 0.033333 
0.030996 0.055046 0.033333 
0.020414 0.032552 0.033333 
0.010088 0.006745 0.033333 
0.000000 -0.022832 0.033333 
1.000000 -0.026165 0.033333 
0.988975 -0.005609 0.033333 
0.978215 0.012574 0.033333 
0.967632 0.028702 0.033333 
0.946637 0.056063 0.033333 
0.925278 0.079012 0.033333 
0.902843 0.100089 0.033333 
0.866057 0.131926 0.033333 
0.825501 0.162880 0.033333 
0.781431 0.190565 0.033333 
0.733520 0.212997 0.033333 
0.679104 0.229794 0.033333 
0.614937 0.240979 0.033333 
0.539756 0.246570 0.033333 
0.460244 0.246570 0.033333 
0.385063 0.240979 0.033333 
0.320896 0.229794 0.033333 
0.266480 0.212997 0.033333 
0.218569 0.190565 0.033333 
0.174499 0.162880 0.033333 
0.133943 0.131926 0.033333 
0.097157 0.100089 0.033333 
0.074722 0.079012 0.033333 
0.053363 0.056063 0.033333 
0.032368 0.028702 0.033333 
0.021785 0.012574 0.033333 
0.011025 -0.005609 0.033333 
0.000000 -0.026165 0.033333 
1.000000 -0.029499 0.033333 
0.988037 -0.017963 0.033333 
0.976844 -0.007403 0.033333 
0.966259 0.002359 0.033333 
0.946275 0.020205 0.033333 
0.926804 0.037005 0.033333 
0.906562 0.054190 0.033333 
0.872693 0.082537 0.033333 
0.834319 0.112126 0.033333 
0.791552 0.140116 0.033333 
0.743897 0.164023 0.033333 
0.688432 0.182794 0.033333 
0.621627 0.195734 0.033333 
0.542195 0.202261 0.033333 
0.457805 0.202261 0.033333 
0.378373 0.195734 0.033333 
0.311568 0.182794 0.033333 
0.256103 0.164023 0.033333 
0.208448 0.140116 0.033333 
0.165681 0.112126 0.033333 
0.127307 0.082537 0.033333 
0.093438 0.054190 0.033333 
0.073196 0.037005 0.033333 
0.053725 0.020205 0.033333 
0.033741 0.002359 0.033333 
0.023156 -0.007403 0.033333 
0.011963 -0.017963 0.033333 
0.000000 -0.029499 0.033333 
1.000000 -0.019499 0.066667 
0.990850 0.019098 0.066667 
0.980958 0.052529 0.066667 
0.970376 0.081390 0.066667 
0.947360 0.127779 0.066667 
0.922228 0.163025 0.066667 
0.895405 0.191888 0.066667 
0.852785 0.230703 0.066667 
0.807865 0.264388 0.066667 
0.761190 0.291464 0.066667 
0.712765 0.310944 0.066667 
0.660448 0.323794 0.066667 
0.601555 0.331470 0.066667 
0.534880 0.335187 0.066667 
0.465120 0.335187 0.066667 
0.398445 0.331470 0.066667 
0.339552 0.323794 0.066667 
0.287235 0.310944 0.066667 
0.238810 0.291464 0.066667 
0.192135 0.264388 0.066667 
0.147215 0.230703 0.066667 
0.104595 0.191888 0.066667 
0.077772 0.163025 0.066667 
0.052640 0.127779 0.066667 
0.029624 0.081390 0.066667 
0.019042 0.052529 0.066667 
0.009150 0.019098 0.066667 
0.000000 -0.019499 0.066667 
1.000000 -0.022832 0.066667 
0.989912 0.006745 0.066667 
0.979586 0.032552 0.066667 
0.969004 0.055046 0.066667 
0.946999 0.091921 0.066667 
0.923753 0.121018 0.066667 
0.899124 0.145989 0.066667 
0.859421 0.181314 0.066667 
0.816683 0.213634 0.066667 
0.771310 0.241015 0.066667 
0.723143 0.261970 0.066667 
0.669776 0.276794 0.066667 
0.608246 0.286225 0.066667 
0.537318 0.290878 0.066667 
0.462682 0.290878 0.066667 
0.391754 0.286225 0.066667 
0.330224 0.276794 0.066667 
0.276857 0.261970 0.066667 
0.228690 0.241015 0.066667 
0.183317 0.213634 0.066667 
0.140579 0.181314 0.066667 
0.100876 0.145989 0.066667 
0.076247 0.121018 0.066667 
0.053001 0.091921 0.066667 
0.030996 0.055046 0.066667 
0.020414 0.032552 0.066667 
0.010088 0.006745 0.066667 
0.000000 -0.022832 0.066667 
1.000000 -0.026165 0.066667 
0.988975 -0.005609 0.066667 
0.978215 0.012574 0.066667 
0.967632 0.028702 0.066667 
0.946637 0.056063 0.066667 
0.925278 0.079012 0.066667 
0.902843 0.100089 0.066667 
0.866057 0.131926 0.066667 
0.825501 0.162880 0.066667 
0.781431 0.190565 0.066667 
0.733520 0.212997 0.066667 
0.679104 0.229794 0.066667 
0.614937 0.240979 0.066667 
0.539756 0.246570 0.066667 
0.460244 0.246570 0.066667 
0.385063 0.240979 0.066667 
0.320896 0.229794 0.066667 
0.266480 0.212997 0.066667 
0.218569 0.190565 0.066667 
0.174499 0.162880 0.066667 
0.133943 0.131926 0.066667 
0.097157 0.100089 0.066667 
0.074722 0.079012 0.066667 
0.053363 0.056063 0.066667 
0.032368 0.028702 0.066667 
0.021785 0.012574 0.066667 
0.011025 -0.005609 0.066667 
0.000000 -0.026165 0.066667 
1.000000 -0.029499 0.066667 
0.988037 -0.017963 0.066667 
0.976844 -0.007403 0.066667 
0.966259 0.002359 0.066667 
0.946275 0.020205 0.066667 
0.926804 0.037005 0.066667 
0.906562 0.054190 0.066667 
0.872693 0.082537 0.066667 
0.834319 0.112126 0.066667 
0.791552 0.140116 0.066667 
0.743897 0.164023 0.066667 
0.688432 0.182794 0.066667 
0.621627 0.195734 0.066667 
0.542195 0.202261 0.066667 
0.457805 0.202261 0.066667 
0.378373 0.195734 0.066667 
0.311568 0.182794 0.066667 
0.256103 0.164023 0.066667 
0.208448 0.140116 0.066667 
0.165681 0.112126 0.066667 
0.127307 0.082537 0.066667 
0.093438 0.054190 0.066667 
0.073196 0.037005 0.066667 
0.053725 0.020205 0.066667 
0.033741 0.002359 0.066667 
0.023156 -0.007403 0.066667 
0.011963 -0.017963 0.066667 
0.000000 -0.029499 0.066667 
1.000000 -0.019499 0.100000 
0.990850 0.019098 0.100000 
0.980958 0.052529 0.100000 
0.970376 0.081390 0.100000 
0.947360 0.127779 0.100000 
0.922228 0.163025 0.100000 
0.895405 0.191888 0.100000 
0.852785 0.230703 0.100000 
0.807865 0.264388 0.100000 
0.761190 0.291464 0.100000 
0.712765 0.310944 0.100000 
0.660448 0.323794 0.100000 
0.601555 0.331470 0.100000 
0.534880 0.335187 0.100000 
0.465120 0.335187 0.100000 
0.398445 0.331470 0.100000 
0.339552 0.323794 0.100000 
0.287235 0.310944 0.100000 
0.238810 0.291464 0.100000 
0.192135 0.264388 0.100000 
0.147215 0.230703 0.100000 
0.104595 0.191888 0.100000 
0.077772 0.163025 0.100000 
0.052640 0.127779 0.100000 
0.029624 0.081390 0.100000 
0.019042 0.052529 0.100000 
0.009150 0.019098 0.100000 
0.000000 -0.019499 0.100000 
1.000000 -0.022832 0.100000 
0.989912 0.006745 0.100000 
0.979586 0.032552 0.100000 
0.969004 0.055046 0.100000 
0.946999 0.091921 0.100000 
0.923753 0.121018 0.100000 
0.899124 0.145989 0.100000 
0.859421 0.181314 0.100000 
0.816683 0.213634 0.100000 
0.771310 0.241015 0.100000 
0.723143 0.261970 0.100000 
0.669776 0.276794 0.100000 
0.608246 0.286225 0.100000 
0.537318 0.290878 0.100000 
0.462682 0.290878 0.100000 
0.391754 0.286225 0.100000 
0.330224 0.276794 0.100000 
0.276857 0.261970 0.100000 
0.228690 0.241015 0.100000 
0.183317 0.213634 0.100000 
0.140579 0.181314 0.100000 
0.100876 0.145989 0.100000 
0.076247 0.121018 0.100000 
0.053001 0.091921 0.100000 
0.030996 0.055046 0.100000 
0.020414 0.032552 0.100000 
0.010088 0.006745 0.100000 
0.000000 -0.022832 0.100000 
1.000000 -0.026165 0.100000 
0.988975 -0.005609 0.100000 
0.978215 0.012574 0.100000 
0.967632 0.028702 0.100000 
0.946637 0.056063 0.100000 
0.925278 0.079012 0.100000 
0.902843 0.100089 0.100000 
0.866057 0.131926 0.100000 
0.825501 0.162880 0.100000 
0.781431 0.190565 0.100000 
0.733520 0.212997 0.100000 
0.679104 0.229794 0.100000 
0.614937 0.240979 0.100000 
0.539756 0.246570 0.100000 
0.460244 0.246570 0.100000 
0.385063 0.240979 0.100000 
0.320896 0.229794 0.100000 
0.266480 0.212997 0.100000 
0.218569 0.190565 0.100000 
0.174499 0.162880 0.100000 
0.133943 0.131926 0.100000 
0.097157 0.100089 0.100000 
0.074722 0.079012 0.100000 
0.053363 0.056063 0.100000 
0.032368 0.028702 0.100000 
0.021785 0.012574 0.100000 
0.011025 -0.005609 0.100000 
0.000000 -0.026165 0.100000 
1.000000 -0.029499 0.100000 
0.988037 -0.017963 0.100000 
0.976844 -0.007403 0.100000 
0.966259 0.002359 0.100000 
0.946275 0.020205 0.100000 
0.926804 0.037005 0.100000 
0.906562 0.054190 0.100000 
0.872693 0.082537 0.100000 
0.834319 0.112126 0.100000 
0.791552 0.140116 0.100000 
0.743897 0.164023 0.100000 
0.688432 0.182794 0.100000 
0.621627 0.195734 0.100000 
0.542195 0.202261 0.100000 
0.457805 0.202261 0.100000 
0.378373 0.195734 0.100000 
0.311568 0.182794 0.100000 
0.256103 0.164023 0.100000 
0.208448 0.140116 0.100000 
0.165681 0.112126 0.100000 
0.127307 0.082537 0.100000 
0.093438 0.054190 0.100000 
0.073196 0.037005 0.100000 
0.053725 0.020205 0.100000 
0.033741 0.002359 0.100000 
0.023156 -0.007403 0.100000 
0.011963 -0.017963 0.100000 
0.000000 -0.029499 0.100000 
Zone T="FFD_vol1" I=10 J=2 K=2
DATAPACKING=POINT
1.837577 -0.773839 0.000000 
1.797476 -0.649732 0.000000 
1.734215 -0.552312 0.000000 
1.662585 -0.458654 0.000000 
1.582853 -0.371879 0.000000 
1.495073 -0.307075 0.000000 
1.399336 -0.225156 0.000000 
1.292176 -0.171526 0.000000 
1.177469 -0.141841 0.000000 
1.020204 -0.167954 0.000000 
1.828906 -0.786079 0.000000 
1.787359 -0.662808 0.000000 
1.721651 -0.567027 0.000000 
1.647302 -0.475516 0.000000 
1.564923 -0.391223 0.000000 
1.474911 -0.328919 0.000000 
1.377510 -0.249343 0.000000 
1.269367 -0.197833 0.000000 
1.154289 -0.169571 0.000000 
1.014423 -0.176114 0.000000 
1.837577 -0.773839 0.100000 
1.797476 -0.649732 0.100000 
1.734215 -0.552312 0.100000 
1.662585 -0.458654 0.100000 
1.582853 -0.371879 0.100000 
1.495073 -0.307075 0.100000 
1.399336 -0.225156 0.100000 
1.292176 -0.171526 0.100000 
1.177469 -0.141841 0.100000 
1.020204 -0.167954 0.100000 
1.828906 -0.786079 0.100000 
1.787359 -0.662808 0.100000 
1.721651 -0.567027 0.100000 
1.647302 -0.475516 0.100000 
1.564923 -0.391223 0.100000 
1.474911 -0.328919 0.100000 
1.377510 -0.249343 0.100000 
1.269367 -0.197833 0.100000 
1.154289 -0.169571 0.100000 
1.014423 -0.176114 0.100000 
Zone T="embedding_vol" I=28 J=4 K=4
DATAPACKING=POINT
1.837577 -0.773839 0.000000 
1.824518 -0.735171 0.000000 
1.812048 -0.701539 0.000000 
1.800129 -0.672396 0.000000 
1.777797 -0.625377 0.000000 
1.757219 -0.589727 0.000000 
1.738092 -0.561057 0.000000 
1.711437 -0.523726 0.000000 
1.686205 -0.490537 0.000000 
1.661235 -0.459801 0.000000 
1.635558 -0.430205 0.000000 
1.608983 -0.401932 0.000000 
1.581512 -0.375541 0.000000 
1.553147 -0.351257 0.000000 
1.523890 -0.327967 0.000000 
1.493747 -0.304223 0.000000 
1.462697 -0.279098 0.000000 
1.430635 -0.253754 0.000000 
1.397433 -0.229871 0.000000 
1.362652 -0.208732 0.000000 
1.324621 -0.190027 0.000000 
1.281360 -0.173043 0.000000 
1.247755 -0.162794 0.000000 
1.205079 -0.155592 0.000000 
1.147465 -0.154032 0.000000 
1.111223 -0.156180 0.000000 
1.069047 -0.160713 0.000000 
1.020204 -0.167954 0.000000 
1.834687 -0.777919 0.000000 
1.821469 -0.739344 0.000000 
1.808847 -0.705804 0.000000 
1.796781 -0.676752 0.000000 
1.774169 -0.629915 0.000000 
1.753329 -0.594442 0.000000 
1.733957 -0.565945 0.000000 
1.706963 -0.528865 0.000000 
1.681416 -0.495924 0.000000 
1.656144 -0.465441 0.000000 
1.630172 -0.436107 0.000000 
1.603308 -0.408105 0.000000 
1.575558 -0.381990 0.000000 
1.546930 -0.357983 0.000000 
1.517428 -0.334968 0.000000 
1.487058 -0.311495 0.000000 
1.455803 -0.286637 0.000000 
1.423557 -0.261552 0.000000 
1.390195 -0.237921 0.000000 
1.355279 -0.217027 0.000000 
1.317136 -0.198560 0.000000 
1.273780 -0.181813 0.000000 
1.240186 -0.171648 0.000000 
1.197912 -0.164084 0.000000 
1.141476 -0.161273 0.000000 
1.106234 -0.162322 0.000000 
1.065396 -0.165366 0.000000 
1.018277 -0.170674 0.000000 
1.831796 -0.781999 0.000000 
1.818421 -0.743516 0.000000 
1.805646 -0.710069 0.000000 
1.793433 -0.681108 0.000000 
1.770540 -0.634452 0.000000 
1.749438 -0.599157 0.000000 
1.729822 -0.570832 0.000000 
1.702488 -0.534004 0.000000 
1.676627 -0.501311 0.000000 
1.651054 -0.471080 0.000000 
1.624785 -0.442009 0.000000 
1.597632 -0.414278 0.000000 
1.569605 -0.388439 0.000000 
1.540713 -0.364708 0.000000 
1.510966 -0.341969 0.000000 
1.480369 -0.318768 0.000000 
1.448908 -0.294176 0.000000 
1.416479 -0.269350 0.000000 
1.382958 -0.245971 0.000000 
1.347907 -0.225321 0.000000 
1.309650 -0.207094 0.000000 
1.266201 -0.190583 0.000000 
1.232617 -0.180501 0.000000 
1.190745 -0.172576 0.000000 
1.135487 -0.168513 0.000000 
1.101245 -0.168463 0.000000 
1.061745 -0.170019 0.000000 
1.016350 -0.173394 0.000000 
1.828906 -0.786079 0.000000 
1.815372 -0.747689 0.000000 
1.802445 -0.714334 0.000000 
1.790084 -0.685465 0.000000 
1.766912 -0.638989 0.000000 
1.745548 -0.603871 0.000000 
1.725686 -0.575720 0.000000 
1.698014 -0.539144 0.000000 
1.671838 -0.506698 0.000000 
1.645963 -0.476719 0.000000 
1.619399 -0.447910 0.000000 
1.591956 -0.420451 0.000000 
1.563651 -0.394888 0.000000 
1.534497 -0.371434 0.000000 
1.504503 -0.348970 0.000000 
1.473680 -0.326041 0.000000 
1.442013 -0.301714 0.000000 
1.409401 -0.277148 0.000000 
1.375720 -0.254021 0.000000 
1.340534 -0.233616 0.000000 
1.302165 -0.215627 0.000000 
1.258621 -0.199353 0.000000 
1.225048 -0.189354 0.000000 
1.183578 -0.181067 0.000000 
1.129498 -0.175753 0.000000 
1.096256 -0.174605 0.000000 
1.058094 -0.174673 0.000000 
1.014423 -0.176114 0.000000 
1.837577 -0.773839 0.033333 
1.824518 -0.735171 0.033333 
1.812048 -0.701539 0.033333 
1.800129 -0.672396 0.033333 
1.777797 -0.625377 0.033333 
1.757219 -0.589727 0.033333 
1.738092 -0.561057 0.033333 
1.711437 -0.523726 0.033333 
1.686205 -0.490537 0.033333 
1.661235 -0.459801 0.033333 
1.635558 -0.430205 0.033333 
1.608983 -0.401932 0.033333 
1.581512 -0.375541 0.033333 
1.553147 -0.351257 0.033333 
1.523890 -0.327967 0.033333 
1.493747 -0.304223 0.033333 
1.462697 -0.279098 0.033333 
1.430635 -0.253754 0.033333 
1.397433 -0.229871 0.033333 
1.362652 -0.208732 0.033333 
1.324621 -0.190027 0.033333 
1.281360 -0.173043 0.033333 
1.247755 -0.162794 0.033333 
1.205079 -0.155592 0.033333 
1.147465 -0.154032 0.033333 
1.111223 -0.156180 0.033333 
1.069047 -0.160713 0.033333 
1.020204 -0.167954 0.033333 
1.834687 -0.777919 0.033333 
1.821469 -0.739344 0.033333 
1.808847 -0.705804 0.033333 
1.796781 -0.676752 0.033333 
1.774169 -0.629915 0.033333 
1.753329 -0.594442 0.033333 
1.733957 -0.565945 0.033333 
1.706963 -0.528865 0.033333 
1.681416 -0.495924 0.033333 
1.656144 -0.465441 0.033333 
1.630172 -0.436107 0.033333 
1.603308 -0.408105 0.033333 
1.575558 -0.381990 0.033333 
1.546930 -0.357983 0.033333 
1.517428 -0.334968 0.033333 
1.487058 -0.311495 0.033333 
1.455803 -0.286637 0.033333 
1.423557 -0.261552 0.033333 
1.390195 -0.237921 0.033333 
1.355279 -0.217027 0.033333 
1.317136 -0.198560 0.033333 
1.273780 -0.181813 0.033333 
1.240186 -0.171648 0.033333 
1.197912 -0.164084 0.033333 
1.141476 -0.161273 0.033333 
1.106234 -0.162322 0.033333 
1.065396 -0.165366 0.033333 
1.018277 -0.170674 0.033333 
1.831796 -0.781999 0.033333 
1.818421 -0.743516 0.033333 
1.805646 -0.710069 0.033333 
1.793433 -0.681108 0.033333 
1.770540 -0.634452 0.033333 
1.749438 -0.599157 0.033333 
1.729822 -0.570832 0.033333 
1.702488 -0.534004 0.033333 
1.676627 -0.501311 0.033333 
1.651054 -0.471080 0.033333 
1.624785 -0.442009 0.033333 
1.597632 -0.414278 0.033333 
1.569605 -0.388439 0.033333 
1.540713 -0.364708 0.033333 
1.510966 -0.341969 0.033333 
1.480369 -0.318768 0.033333 
1.448908 -0.294176 0.033333 
1.416479 -0.269350 0.033333 
1.382958 -0.245971 0.033333 
1.347907 -0.225321 0.033333 
1.309650 -0.207094 0.033333 
1.266201 -0.190583 0.033333 
1.232617 -0.180501 0.033333 
1.190745 -0.172576 0.033333 
1.135487 -0.168513 0.033333 
1.101245 -0.168463 0.033333 
1.061745 -0.170019 0.033333 
1.016350 -0.173394 0.033333 
1.828906 -0.786079 0.033333 
1.815372 -0.747689 0.033333 
1.802445 -0.714334 0.033333 
1.790084 -0.685465 0.033333 
1.766912 -0.638989 0.033333 
1.745548 -0.603871 0.033333 
1.725686 -0.575720 0.033333 
1.698014 -0.539144 0.033333 
1.671838 -0.506698 0.033333 
1.645963 -0.476719 0.033333 
1.619399 -0.447910 0.033333 
1.591956 -0.420451 0.033333 
1.563651 -0.394888 0.033333 
1.534497 -0.371434 0.033333 
1.504503 -0.348970 0.033333 
1.473680 -0.326041 0.033333 
1.442013 -0.301714 0.033333 
1.409401 -0.277148 0.033333 
1.375720 -0.254021 0.033333 
1.340534 -0.233616 0.033333 
1.302165 -0.215627 0.033333 
1.258621 -0.199353 0.033333 
1.225048 -0.189354 0.033333 
1.183578 -0.181067 0.033333 
1.129498 -0.175753 0.033333 
1.096256 -0.174605 0.033333 
1.058094 -0.174673 0.033333 
1.014423 -0.176114 0.033333 
1.837577 -0.773839 0.066667 
1.824518 -0.735171 0.066667 
1.812048 -0.701539 0.066667 
1.800129 -0.672396 0.066667 
1.777797 -0.625377 0.066667 
1.757219 -0.589727 0.066667 
1.738092 -0.561057 0.066667 
1.711437 -0.523726 0.066667 
1.686205 -0.490537 0.066667 
1.661235 -0.459801 0.066667 
1.635558 -0.430205 0.066667 
1.608983 -0.401932 0.066667 
1.581512 -0.375541 0.066667 
1.553147 -0.351257 0.066667 
1.523890 -0.327967 0.066667 
1.493747 -0.304223 0.066667 
1.462697 -0.279098 0.066667 
1.430635 -0.253754 0.066667 
1.397433 -0.229871 0.066667 
1.362652 -0.208732 0.066667 
1.324621 -0.190027 0.066667 
1.281360 -0.173043 0.066667 
1.247755 -0.162794 0.066667 
1.205079 -0.155592 0.066667 
1.147465 -0.154032 0.066667 
1.111223 -0.156180 0.066667 
1.069047 -0.160713 0.066667 
1.020204 -0.167954 0.066667 
1.834687 -0.777919 0.066667 
1.821469 -0.739344 0.066667 
1.808847 -0.705804 0.066667 
1.796781 -0.676752 0.066667 
1.774169 -0.629915 0.066667 
1.753329 -0.594442 0.066667 
1.733957 -0.565945 0.066667 
1.706963 -0.528865 0.066667 
1.681416 -0.495924 0.066667 
1.656144 -0.465441 0.066667 
1.630172 -0.436107 0.066667 
1.603308 -0.408105 0.066667 
1.575558 -0.381990 0.066667 
1.546930 -0.357983 0.066667 
1.517428 -0.334968 0.066667 
1.487058 -0.311495 0.066667 
1.455803 -0.286637 0.066667 
1.423557 -0.261552 0.066667 
1.390195 -0.237921 0.066667 
1.355279 -0.217027 0.066667 
1.317136 -0.198560 0.066667 
1.273780 -0.181813 0.066667 
1.240186 -0.171648 0.066667 
1.197912 -0.164084 0.066667 
1.141476 -0.161273 0.066667 
1.106234 -0.162322 0.066667 
1.065396 -0.165366 0.066667 
1.018277 -0.170674 0.066667 
1.831796 -0.781999 0.066667 
1.818421 -0.743516 0.066667 
1.805646 -0.710069 0.066667 
1.793433 -0.681108 0.066667 
1.770540 -0.634452 0.066667 
1.749438 -0.599157 0.066667 
1.729822 -0.570832 0.066667 
1.702488 -0.534004 0.066667 
1.676627 -0.501311 0.066667 
1.651054 -0.471080 0.066667 
1.624785 -0.442009 0.066667 
1.597632 -0.414278 0.066667 
1.569605 -0.388439 0.066667 
1.540713 -0.364708 0.066667 
1.510966 -0.341969 0.066667 
1.480369 -0.318768 0.066667 
1.448908 -0.294176 0.066667 
1.416479 -0.269350 0.066667 
1.382958 -0.245971 0.066667 
1.347907 -0.225321 0.066667 
1.309650 -0.207094 0.066667 
1.266201 -0.190583 0.066667 
1.232617 -0.180501 0.066667 
1.190745 -0.172576 0.066667 
1.135487 -0.168513 0.066667 
1.101245 -0.168463 0.066667 
1.061745 -0.170019 0.066667 
1.016350 -0.173394 0.066667 
1.828906 -0.786079 0.066667 
1.815372 -0.747689 0.066667 
1.802445 -0.714334 0.066667 
1.790084 -0.685465 0.066667 
1.766912 -0.638989 0.066667 
1.745548 -0.603871 0.066667 
1.725686 -0.575720 0.066667 
1.698014 -0.539144 0.066667 
1.671838 -0.506698 0.066667 
1.645963 -0.476719 0.066667 
1.619399 -0.447910 0.066667 
1.591956 -0.420451 0.066667 
1.563651 -0.394888 0.066667 
1.534497 -0.371434 0.066667 
1.504503 -0.348970 0.066667 
1.473680 -0.326041 0.066667 
1.442013 -0.301714 0.066667 
1.409401 -0.277148 0.066667 
1.375720 -0.254021 0.066667 
1.340534 -0.233616 0.066667 
1.302165 -0.215627 0.066667 
1.258621 -0.199353 0.066667 
1.225048 -0.189354 0.066667 
1.183578 -0.181067 0.066667 
1.129498 -0.175753 0.066667 
1.096256 -0.174605 0.066667 
1.058094 -0.174673 0.066667 
1.014423 -0.176114 0.066667 
1.837577 -0.773839 0.100000 
1.824518 -0.735171 0.100000 
1.812048 -0.701539 0.100000 
1.800129 -0.672396 0.100000 
1.777797 -0.625377 0.100000 
1.757219 -0.589727 0.100000 
1.738092 -0.561057 0.100000 
1.711437 -0.523726 0.100000 
1.686205 -0.490537 0.100000 
1.661235 -0.459801 0.100000 
1.635558 -0.430205 0.100000 
1.608983 -0.401932 0.100000 
1.581512 -0.375541 0.100000 
1.553147 -0.351257 0.100000 
1.523890 -0.327967 0.100000 
1.493747 -0.304223 0.100000 
1.462697 -0.279098 0.100000 
1.430635 -0.253754 0.100000 
1.397433 -0.229871 0.100000 
1.362652 -0.208732 0.100000 
1.324621 -0.190027 0.100000 
1.281360 -0.173043 0.100000 
1.247755 -0.162794 0.100000 
1.205079 -0.155592 0.100000 
1.147465 -0.154032 0.100000 
1.111223 -0.156180 0.100000 
1.069047 -0.160713 0.100000 
1.020204 -0.167954 0.100000 
1.834687 -0.777919 0.100000 
1.821469 -0.739344 0.100000 
1.808847 -0.705804 0.100000 
1.796781 -0.676752 0.100000 
1.774169 -0.629915 0.100000 
1.753329 -0.594442 0.100000 
1.733957 -0.565945 0.100000 
1.706963 -0.528865 0.100000 
1.681416 -0.495924 0.100000 
1.656144 -0.465441 0.100000 
1.630172 -0.436107 0.100000 
1.603308 -0.408105 0.100000 
1.575558 -0.381990 0.100000 
1.546930 -0.357983 0.100000 
1.517428 -0.334968 0.100000 
1.487058 -0.311495 0.100000 
1.455803 -0.286637 0.100000 
1.423557 -0.261552 0.100000 
1.390195 -0.237921 0.100000 
1.355279 -0.217027 0.100000 
1.317136 -0.198560 0.100000 
1.273780 -0.181813 0.100000 
1.240186 -0.171648 0.100000 
1.197912 -0.164084 0.100000 
1.141476 -0.161273 0.100000 
1.106234 -0.162322 0.100000 
1.065396 -0.165366 0.100000 
1.018277 -0.170674 0.100000 
1.831796 -0.781999 0.100000 
1.818421 -0.743516 0.100000 
1.805646 -0.710069 0.100000 
1.793433 -0.681108 0.100000 
1.770540 -0.634452 0.100000 
1.749438 -0.599157 0.100000 
1.729822 -0.570832 0.100000 
1.702488 -0.534004 0.100000 
1.676627 -0.501311 0.100000 
1.651054 -0.471080 0.100000 
1.624785 -0.442009 0.100000 
1.597632 -0.414278 0.100000 
1.569605 -0.388439 0.100000 
1.540713 -0.364708 0.100000 
1.510966 -0.341969 0.100000 
1.480369 -0.318768 0.100000 
1.448908 -0.294176 0.100000 
1.416479 -0.269350 0.100000 
1.382958 -0.245971 0.100000 
1.347907 -0.225321 0.100000 
1.309650 -0.207094 0.100000 
1.266201 -0.190583 0.100000 
1.232617 -0.180501 0.100000 
1.190745 -0.172576 0.100000 
1.135487 -0.168513 0.100000 
1.101245 -0.168463 0.100000 
1.061745 -0.170019 0.100000 
1.016350 -0.173394 0.100000 
1.828906 -0.786079 0.100000 
1.815372 -0.747689 0.100000 
1.802445 -0.714334 0.100000 
1.790084 -0.685465 0.100000 
1.766912 -0.638989 0.100000 
1.745548 -0.603871 0.100000 
1.725686 -0.575720 0.100000 
1.698014 -0.539144 0.100000 
1.671838 -0.506698 0.100000 
1.645963 -0.476719 0.100000 
1.619399 -0.447910 0.100000 
1.591956 -0.420451 0.100000 
1.563651 -0.394888 0.100000 
1.534497 -0.371434 0.100000 
1.504503 -0.348970 0.100000 
1.473680 -0.326041 0.100000 
1.442013 -0.301714 0.100000 
1.409401 -0.277148 0.100000 
1.375720 -0.254021 0.100000 
1.340534 -0.233616 0.100000 
1.302165 -0.215627 0.100000 
1.258621 -0.199353 0.100000 
1.225048 -0.189354 0.100000 
1.183578 -0.181067 0.100000 
1.129498 -0.175753 0.100000 
1.096256 -0.174605 0.100000 
1.058094 -0.174673 0.100000 
1.014423 -0.176114 0.100000 
