VARIABLES = "CoordinateX", "CoordinateY", "CoordinateZ"
Zone T="FFD_vol0" I=10 J=2 K=2
DATAPACKING=POINT
1.000000 -0.013046 0.000000 
0.969214 0.059000 0.000000 
0.877406 0.150793 0.000000 
0.740031 0.252025 0.000000 
0.585055 0.311846 0.000000 
0.414945 0.311846 0.000000 
0.259970 0.252025 0.000000 
0.122594 0.150793 0.000000 
0.030786 0.059000 0.000000 
0.000000 -0.013046 0.000000 
1.000000 -0.023046 0.000000 
0.965146 0.035552 0.000000 
0.880763 0.113207 0.000000 
0.744454 0.216143 0.000000 
0.590302 0.279858 0.000000 
0.409699 0.279858 0.000000 
0.255546 0.216143 0.000000 
0.119237 0.113207 0.000000 
0.034854 0.035552 0.000000 
0.000000 -0.023046 0.000000 
1.000000 -0.013046 0.100000 
0.969214 0.059000 0.100000 
0.877406 0.150793 0.100000 
0.740031 0.252025 0.100000 
0.585055 0.311846 0.100000 
0.414945 0.311846 0.100000 
0.259970 0.252025 0.100000 
0.122594 0.150793 0.100000 
0.030786 0.059000 0.100000 
0.000000 -0.013046 0.100000 
1.000000 -0.023046 0.100000 
0.965146 0.035552 0.100000 
0.880763 0.113207 0.100000 
0.744454 0.216143 0.100000 
0.590302 0.279858 0.100000 
0.409699 0.279858 0.100000 
0.255546 0.216143 0.100000 
0.119237 0.113207 0.100000 
0.034854 0.035552 0.100000 
0.000000 -0.023046 0.100000 
Zone T="embedding_vol" I=28 J=4 K=4
DATAPACKING=POINT
1.000000 -0.013046 0.000000 
0.989199 0.010029 0.000000 
0.977403 0.031331 0.000000 
0.964737 0.051027 0.000000 
0.937294 0.086260 0.000000 
0.907869 0.117049 0.000000 
0.877462 0.144717 0.000000 
0.831522 0.182481 0.000000 
0.784955 0.216011 0.000000 
0.737097 0.245123 0.000000 
0.687409 0.269551 0.000000 
0.635858 0.288696 0.000000 
0.582533 0.301876 0.000000 
0.527698 0.308523 0.000000 
0.472302 0.308523 0.000000 
0.417467 0.301876 0.000000 
0.364142 0.288696 0.000000 
0.312591 0.269551 0.000000 
0.262903 0.245123 0.000000 
0.215045 0.216011 0.000000 
0.168478 0.182481 0.000000 
0.122538 0.144717 0.000000 
0.092131 0.117049 0.000000 
0.062706 0.086260 0.000000 
0.035263 0.051027 0.000000 
0.022597 0.031331 0.000000 
0.010801 0.010029 0.000000 
0.000000 -0.013046 0.000000 
1.000000 -0.016379 0.000000 
0.988839 0.005279 0.000000 
0.976848 0.025315 0.000000 
0.964128 0.043888 0.000000 
0.936894 0.077278 0.000000 
0.907928 0.106714 0.000000 
0.878021 0.133461 0.000000 
0.832593 0.170523 0.000000 
0.786286 0.203944 0.000000 
0.738558 0.233284 0.000000 
0.688948 0.258051 0.000000 
0.637328 0.277541 0.000000 
0.583653 0.290997 0.000000 
0.528118 0.297788 0.000000 
0.471882 0.297788 0.000000 
0.416347 0.290997 0.000000 
0.362672 0.277541 0.000000 
0.311052 0.258051 0.000000 
0.261442 0.233284 0.000000 
0.213714 0.203944 0.000000 
0.167407 0.170523 0.000000 
0.121979 0.133461 0.000000 
0.092072 0.106714 0.000000 
0.063106 0.077278 0.000000 
0.035872 0.043888 0.000000 
0.023152 0.025315 0.000000 
0.011161 0.005279 0.000000 
0.000000 -0.016379 0.000000 
1.000000 -0.019712 0.000000 
0.988478 0.000529 0.000000 
0.976294 0.019299 0.000000 
0.963520 0.036749 0.000000 
0.936495 0.068296 0.000000 
0.907987 0.096378 0.000000 
0.878581 0.122205 0.000000 
0.833664 0.158566 0.000000 
0.787618 0.191877 0.000000 
0.740019 0.221445 0.000000 
0.690487 0.246551 0.000000 
0.638799 0.266386 0.000000 
0.584773 0.280118 0.000000 
0.528538 0.287053 0.000000 
0.471462 0.287053 0.000000 
0.415227 0.280118 0.000000 
0.361201 0.266386 0.000000 
0.309513 0.246551 0.000000 
0.259981 0.221445 0.000000 
0.212382 0.191877 0.000000 
0.166336 0.158566 0.000000 
0.121419 0.122205 0.000000 
0.092013 0.096378 0.000000 
0.063505 0.068296 0.000000 
0.036480 0.036749 0.000000 
0.023706 0.019299 0.000000 
0.011522 0.000529 0.000000 
0.000000 -0.019712 0.000000 
1.000000 -0.023046 0.000000 
0.988118 -0.004221 0.000000 
0.975740 0.013283 0.000000 
0.962912 0.029611 0.000000 
0.936096 0.059314 0.000000 
0.908047 0.086043 0.000000 
0.879140 0.110949 0.000000 
0.834736 0.146608 0.000000 
0.788949 0.179811 0.000000 
0.741480 0.209606 0.000000 
0.692025 0.235051 0.000000 
0.640269 0.255231 0.000000 
0.585893 0.269239 0.000000 
0.528958 0.276319 0.000000 
0.471042 0.276319 0.000000 
0.414107 0.269239 0.000000 
0.359731 0.255231 0.000000 
0.307975 0.235051 0.000000 
0.258520 0.209606 0.000000 
0.211051 0.179811 0.000000 
0.165264 0.146608 0.000000 
0.120860 0.110949 0.000000 
0.091953 0.086043 0.000000 
0.063904 0.059314 0.000000 
0.037088 0.029611 0.000000 
0.024260 0.013283 0.000000 
0.011882 -0.004221 0.000000 
0.000000 -0.023046 0.000000 
1.000000 -0.013046 0.033333 
0.989199 0.010029 0.033333 
0.977403 0.031331 0.033333 
0.964737 0.051027 0.033333 
0.937294 0.086260 0.033333 
0.907869 0.117049 0.033333 
0.877462 0.144717 0.033333 
0.831522 0.182481 0.033333 
0.784955 0.216011 0.033333 
0.737097 0.245123 0.033333 
0.687409 0.269551 0.033333 
0.635858 0.288696 0.033333 
0.582533 0.301876 0.033333 
0.527698 0.308523 0.033333 
0.472302 0.308523 0.033333 
0.417467 0.301876 0.033333 
0.364142 0.288696 0.033333 
0.312591 0.269551 0.033333 
0.262903 0.245123 0.033333 
0.215045 0.216011 0.033333 
0.168478 0.182481 0.033333 
0.122538 0.144717 0.033333 
0.092131 0.117049 0.033333 
0.062706 0.086260 0.033333 
0.035263 0.051027 0.033333 
0.022597 0.031331 0.033333 
0.010801 0.010029 0.033333 
0.000000 -0.013046 0.033333 
1.000000 -0.016379 0.033333 
0.988839 0.005279 0.033333 
0.976848 0.025315 0.033333 
0.964128 0.043888 0.033333 
0.936894 0.077278 0.033333 
0.907928 0.106714 0.033333 
0.878021 0.133461 0.033333 
0.832593 0.170523 0.033333 
0.786286 0.203944 0.033333 
0.738558 0.233284 0.033333 
0.688948 0.258051 0.033333 
0.637328 0.277541 0.033333 
0.583653 0.290997 0.033333 
0.528118 0.297788 0.033333 
0.471882 0.297788 0.033333 
0.416347 0.290997 0.033333 
0.362672 0.277541 0.033333 
0.311052 0.258051 0.033333 
0.261442 0.233284 0.033333 
0.213714 0.203944 0.033333 
0.167407 0.170523 0.033333 
0.121979 0.133461 0.033333 
0.092072 0.106714 0.033333 
0.063106 0.077278 0.033333 
0.035872 0.043888 0.033333 
0.023152 0.025315 0.033333 
0.011161 0.005279 0.033333 
0.000000 -0.016379 0.033333 
1.000000 -0.019712 0.033333 
0.988478 0.000529 0.033333 
0.976294 0.019299 0.033333 
0.963520 0.036749 0.033333 
0.936495 0.068296 0.033333 
0.907987 0.096378 0.033333 
0.878581 0.122205 0.033333 
0.833664 0.158566 0.033333 
0.787618 0.191877 0.033333 
0.740019 0.221445 0.033333 
0.690487 0.246551 0.033333 
0.638799 0.266386 0.033333 
0.584773 0.280118 0.033333 
0.528538 0.287053 0.033333 
0.471462 0.287053 0.033333 
0.415227 0.280118 0.033333 
0.361201 0.266386 0.033333 
0.309513 0.246551 0.033333 
0.259981 0.221445 0.033333 
0.212382 0.191877 0.033333 
0.166336 0.158566 0.033333 
0.121419 0.122205 0.033333 
0.092013 0.096378 0.033333 
0.063505 0.068296 0.033333 
0.036480 0.036749 0.033333 
0.023706 0.019299 0.033333 
0.011522 0.000529 0.033333 
0.000000 -0.019712 0.033333 
1.000000 -0.023046 0.033333 
0.988118 -0.004221 0.033333 
0.975740 0.013283 0.033333 
0.962912 0.029611 0.033333 
0.936096 0.059314 0.033333 
0.908047 0.086043 0.033333 
0.879140 0.110949 0.033333 
0.834736 0.146608 0.033333 
0.788949 0.179811 0.033333 
0.741480 0.209606 0.033333 
0.692025 0.235051 0.033333 
0.640269 0.255231 0.033333 
0.585893 0.269239 0.033333 
0.528958 0.276319 0.033333 
0.471042 0.276319 0.033333 
0.414107 0.269239 0.033333 
0.359731 0.255231 0.033333 
0.307975 0.235051 0.033333 
0.258520 0.209606 0.033333 
0.211051 0.179811 0.033333 
0.165264 0.146608 0.033333 
0.120860 0.110949 0.033333 
0.091953 0.086043 0.033333 
0.063904 0.059314 0.033333 
0.037088 0.029611 0.033333 
0.024260 0.013283 0.033333 
0.011882 -0.004221 0.033333 
0.000000 -0.023046 0.033333 
1.000000 -0.013046 0.066667 
0.989199 0.010029 0.066667 
0.977403 0.031331 0.066667 
0.964737 0.051027 0.066667 
0.937294 0.086260 0.066667 
0.907869 0.117049 0.066667 
0.877462 0.144717 0.066667 
0.831522 0.182481 0.066667 
0.784955 0.216011 0.066667 
0.737097 0.245123 0.066667 
0.687409 0.269551 0.066667 
0.635858 0.288696 0.066667 
0.582533 0.301876 0.066667 
0.527698 0.308523 0.066667 
0.472302 0.308523 0.066667 
0.417467 0.301876 0.066667 
0.364142 0.288696 0.066667 
0.312591 0.269551 0.066667 
0.262903 0.245123 0.066667 
0.215045 0.216011 0.066667 
0.168478 0.182481 0.066667 
0.122538 0.144717 0.066667 
0.092131 0.117049 0.066667 
0.062706 0.086260 0.066667 
0.035263 0.051027 0.066667 
0.022597 0.031331 0.066667 
0.010801 0.010029 0.066667 
0.000000 -0.013046 0.066667 
1.000000 -0.016379 0.066667 
0.988839 0.005279 0.066667 
0.976848 0.025315 0.066667 
0.964128 0.043888 0.066667 
0.936894 0.077278 0.066667 
0.907928 0.106714 0.066667 
0.878021 0.133461 0.066667 
0.832593 0.170523 0.066667 
0.786286 0.203944 0.066667 
0.738558 0.233284 0.066667 
0.688948 0.258051 0.066667 
0.637328 0.277541 0.066667 
0.583653 0.290997 0.066667 
0.528118 0.297788 0.066667 
0.471882 0.297788 0.066667 
0.416347 0.290997 0.066667 
0.362672 0.277541 0.066667 
0.311052 0.258051 0.066667 
0.261442 0.233284 0.066667 
0.213714 0.203944 0.066667 
0.167407 0.170523 0.066667 
0.121979 0.133461 0.066667 
0.092072 0.106714 0.066667 
0.063106 0.077278 0.066667 
0.035872 0.043888 0.066667 
0.023152 0.025315 0.066667 
0.011161 0.005279 0.066667 
0.000000 -0.016379 0.066667 
1.000000 -0.019712 0.066667 
0.988478 0.000529 0.066667 
0.976294 0.019299 0.066667 
0.963520 0.036749 0.066667 
0.936495 0.068296 0.066667 
0.907987 0.096378 0.066667 
0.878581 0.122205 0.066667 
0.833664 0.158566 0.066667 
0.787618 0.191877 0.066667 
0.740019 0.221445 0.066667 
0.690487 0.246551 0.066667 
0.638799 0.266386 0.066667 
0.584773 0.280118 0.066667 
0.528538 0.287053 0.066667 
0.471462 0.287053 0.066667 
0.415227 0.280118 0.066667 
0.361201 0.266386 0.066667 
0.309513 0.246551 0.066667 
0.259981 0.221445 0.066667 
0.212382 0.191877 0.066667 
0.166336 0.158566 0.066667 
0.121419 0.122205 0.066667 
0.092013 0.096378 0.066667 
0.063505 0.068296 0.066667 
0.036480 0.036749 0.066667 
0.023706 0.019299 0.066667 
0.011522 0.000529 0.066667 
0.000000 -0.019712 0.066667 
1.000000 -0.023046 0.066667 
0.988118 -0.004221 0.066667 
0.975740 0.013283 0.066667 
0.962912 0.029611 0.066667 
0.936096 0.059314 0.066667 
0.908047 0.086043 0.066667 
0.879140 0.110949 0.066667 
0.834736 0.146608 0.066667 
0.788949 0.179811 0.066667 
0.741480 0.209606 0.066667 
0.692025 0.235051 0.066667 
0.640269 0.255231 0.066667 
0.585893 0.269239 0.066667 
0.528958 0.276319 0.066667 
0.471042 0.276319 0.066667 
0.414107 0.269239 0.066667 
0.359731 0.255231 0.066667 
0.307975 0.235051 0.066667 
0.258520 0.209606 0.066667 
0.211051 0.179811 0.066667 
0.165264 0.146608 0.066667 
0.120860 0.110949 0.066667 
0.091953 0.086043 0.066667 
0.063904 0.059314 0.066667 
0.037088 0.029611 0.066667 
0.024260 0.013283 0.066667 
0.011882 -0.004221 0.066667 
0.000000 -0.023046 0.066667 
1.000000 -0.013046 0.100000 
0.989199 0.010029 0.100000 
0.977403 0.031331 0.100000 
0.964737 0.051027 0.100000 
0.937294 0.086260 0.100000 
0.907869 0.117049 0.100000 
0.877462 0.144717 0.100000 
0.831522 0.182481 0.100000 
0.784955 0.216011 0.100000 
0.737097 0.245123 0.100000 
0.687409 0.269551 0.100000 
0.635858 0.288696 0.100000 
0.582533 0.301876 0.100000 
0.527698 0.308523 0.100000 
0.472302 0.308523 0.100000 
0.417467 0.301876 0.100000 
0.364142 0.288696 0.100000 
0.312591 0.269551 0.100000 
0.262903 0.245123 0.100000 
0.215045 0.216011 0.100000 
0.168478 0.182481 0.100000 
0.122538 0.144717 0.100000 
0.092131 0.117049 0.100000 
0.062706 0.086260 0.100000 
0.035263 0.051027 0.100000 
0.022597 0.031331 0.100000 
0.010801 0.010029 0.100000 
0.000000 -0.013046 0.100000 
1.000000 -0.016379 0.100000 
0.988839 0.005279 0.100000 
0.976848 0.025315 0.100000 
0.964128 0.043888 0.100000 
0.936894 0.077278 0.100000 
0.907928 0.106714 0.100000 
0.878021 0.133461 0.100000 
0.832593 0.170523 0.100000 
0.786286 0.203944 0.100000 
0.738558 0.233284 0.100000 
0.688948 0.258051 0.100000 
0.637328 0.277541 0.100000 
0.583653 0.290997 0.100000 
0.528118 0.297788 0.100000 
0.471882 0.297788 0.100000 
0.416347 0.290997 0.100000 
0.362672 0.277541 0.100000 
0.311052 0.258051 0.100000 
0.261442 0.233284 0.100000 
0.213714 0.203944 0.100000 
0.167407 0.170523 0.100000 
0.121979 0.133461 0.100000 
0.092072 0.106714 0.100000 
0.063106 0.077278 0.100000 
0.035872 0.043888 0.100000 
0.023152 0.025315 0.100000 
0.011161 0.005279 0.100000 
0.000000 -0.016379 0.100000 
1.000000 -0.019712 0.100000 
0.988478 0.000529 0.100000 
0.976294 0.019299 0.100000 
0.963520 0.036749 0.100000 
0.936495 0.068296 0.100000 
0.907987 0.096378 0.100000 
0.878581 0.122205 0.100000 
0.833664 0.158566 0.100000 
0.787618 0.191877 0.100000 
0.740019 0.221445 0.100000 
0.690487 0.246551 0.100000 
0.638799 0.266386 0.100000 
0.584773 0.280118 0.100000 
0.528538 0.287053 0.100000 
0.471462 0.287053 0.100000 
0.415227 0.280118 0.100000 
0.361201 0.266386 0.100000 
0.309513 0.246551 0.100000 
0.259981 0.221445 0.100000 
0.212382 0.191877 0.100000 
0.166336 0.158566 0.100000 
0.121419 0.122205 0.100000 
0.092013 0.096378 0.100000 
0.063505 0.068296 0.100000 
0.036480 0.036749 0.100000 
0.023706 0.019299 0.100000 
0.011522 0.000529 0.100000 
0.000000 -0.019712 0.100000 
1.000000 -0.023046 0.100000 
0.988118 -0.004221 0.100000 
0.975740 0.013283 0.100000 
0.962912 0.029611 0.100000 
0.936096 0.059314 0.100000 
0.908047 0.086043 0.100000 
0.879140 0.110949 0.100000 
0.834736 0.146608 0.100000 
0.788949 0.179811 0.100000 
0.741480 0.209606 0.100000 
0.692025 0.235051 0.100000 
0.640269 0.255231 0.100000 
0.585893 0.269239 0.100000 
0.528958 0.276319 0.100000 
0.471042 0.276319 0.100000 
0.414107 0.269239 0.100000 
0.359731 0.255231 0.100000 
0.307975 0.235051 0.100000 
0.258520 0.209606 0.100000 
0.211051 0.179811 0.100000 
0.165264 0.146608 0.100000 
0.120860 0.110949 0.100000 
0.091953 0.086043 0.100000 
0.063904 0.059314 0.100000 
0.037088 0.029611 0.100000 
0.024260 0.013283 0.100000 
0.011882 -0.004221 0.100000 
0.000000 -0.023046 0.100000 
Zone T="FFD_vol1" I=10 J=2 K=2
DATAPACKING=POINT
1.984601 -0.684504 0.000000 
1.931279 -0.560424 0.000000 
1.844692 -0.486540 0.000000 
1.751615 -0.416505 0.000000 
1.652429 -0.354340 0.000000 
1.547657 -0.299686 0.000000 
1.437652 -0.257041 0.000000 
1.321628 -0.235375 0.000000 
1.203831 -0.234295 0.000000 
1.051953 -0.282567 0.000000 
1.979250 -0.698518 0.000000 
1.924736 -0.575607 0.000000 
1.836186 -0.503920 0.000000 
1.741010 -0.436641 0.000000 
1.639879 -0.377538 0.000000 
1.533569 -0.325861 0.000000 
1.422534 -0.285901 0.000000 
1.306086 -0.266532 0.000000 
1.188283 -0.266923 0.000000 
1.048386 -0.291909 0.000000 
1.984601 -0.684504 0.100000 
1.931279 -0.560424 0.100000 
1.844692 -0.486540 0.100000 
1.751615 -0.416505 0.100000 
1.652429 -0.354340 0.100000 
1.547657 -0.299686 0.100000 
1.437652 -0.257041 0.100000 
1.321628 -0.235375 0.100000 
1.203831 -0.234295 0.100000 
1.051953 -0.282567 0.100000 
1.979250 -0.698518 0.100000 
1.924736 -0.575607 0.100000 
1.836186 -0.503920 0.100000 
1.741010 -0.436641 0.100000 
1.639879 -0.377538 0.100000 
1.533569 -0.325861 0.100000 
1.422534 -0.285901 0.100000 
1.306086 -0.266532 0.100000 
1.188283 -0.266923 0.100000 
1.048386 -0.291909 0.100000 
Zone T="embedding_vol" I=28 J=4 K=4
DATAPACKING=POINT
1.984601 -0.684504 0.000000 
1.967193 -0.646261 0.000000 
1.950496 -0.613812 0.000000 
1.934477 -0.586495 0.000000 
1.904349 -0.544612 0.000000 
1.876550 -0.515323 0.000000 
1.850826 -0.493339 0.000000 
1.815446 -0.465258 0.000000 
1.782566 -0.440491 0.000000 
1.750597 -0.417817 0.000000 
1.718217 -0.396219 0.000000 
1.685177 -0.375482 0.000000 
1.651498 -0.355592 0.000000 
1.617197 -0.336567 0.000000 
1.582288 -0.318543 0.000000 
1.546785 -0.301687 0.000000 
1.510693 -0.286193 0.000000 
1.473991 -0.272366 0.000000 
1.436649 -0.260538 0.000000 
1.398305 -0.250979 0.000000 
1.357269 -0.243716 0.000000 
1.311516 -0.238716 0.000000 
1.276584 -0.237122 0.000000 
1.233200 -0.239513 0.000000 
1.175907 -0.248881 0.000000 
1.140340 -0.257118 0.000000 
1.099249 -0.268222 0.000000 
1.051953 -0.282567 0.000000 
1.982818 -0.689175 0.000000 
1.965280 -0.651061 0.000000 
1.948458 -0.618739 0.000000 
1.932319 -0.591547 0.000000 
1.901964 -0.549910 0.000000 
1.873956 -0.520858 0.000000 
1.848038 -0.499102 0.000000 
1.812392 -0.471350 0.000000 
1.779269 -0.446900 0.000000 
1.747070 -0.424546 0.000000 
1.714469 -0.403276 0.000000 
1.681217 -0.382873 0.000000 
1.647337 -0.363320 0.000000 
1.612850 -0.344629 0.000000 
1.577772 -0.326933 0.000000 
1.542117 -0.310396 0.000000 
1.505892 -0.295211 0.000000 
1.469077 -0.281681 0.000000 
1.431643 -0.270136 0.000000 
1.393230 -0.260847 0.000000 
1.352144 -0.253844 0.000000 
1.306358 -0.249096 0.000000 
1.271457 -0.247581 0.000000 
1.228373 -0.249522 0.000000 
1.171909 -0.257385 0.000000 
1.137036 -0.264308 0.000000 
1.096871 -0.273638 0.000000 
1.050764 -0.285681 0.000000 
1.981034 -0.693846 0.000000 
1.963366 -0.655861 0.000000 
1.946419 -0.623667 0.000000 
1.930161 -0.596600 0.000000 
1.899579 -0.555207 0.000000 
1.871362 -0.526393 0.000000 
1.845249 -0.504865 0.000000 
1.809338 -0.477441 0.000000 
1.775971 -0.453310 0.000000 
1.743544 -0.431275 0.000000 
1.710721 -0.410333 0.000000 
1.677257 -0.390265 0.000000 
1.643176 -0.371048 0.000000 
1.608504 -0.352690 0.000000 
1.573256 -0.335322 0.000000 
1.537449 -0.319105 0.000000 
1.501091 -0.304229 0.000000 
1.464163 -0.290996 0.000000 
1.426638 -0.279734 0.000000 
1.388154 -0.270716 0.000000 
1.347018 -0.263973 0.000000 
1.301201 -0.259477 0.000000 
1.266331 -0.258040 0.000000 
1.223545 -0.259530 0.000000 
1.167911 -0.265888 0.000000 
1.133733 -0.271498 0.000000 
1.094494 -0.279053 0.000000 
1.049575 -0.288795 0.000000 
1.979250 -0.698518 0.000000 
1.961452 -0.660662 0.000000 
1.944381 -0.628594 0.000000 
1.928002 -0.601653 0.000000 
1.897194 -0.560505 0.000000 
1.868768 -0.531927 0.000000 
1.842461 -0.510629 0.000000 
1.806283 -0.483532 0.000000 
1.772674 -0.459720 0.000000 
1.740018 -0.438004 0.000000 
1.706974 -0.417390 0.000000 
1.673297 -0.397656 0.000000 
1.639016 -0.378776 0.000000 
1.604157 -0.360752 0.000000 
1.568740 -0.343711 0.000000 
1.532781 -0.327814 0.000000 
1.496290 -0.313247 0.000000 
1.459249 -0.300310 0.000000 
1.421632 -0.289333 0.000000 
1.383079 -0.280585 0.000000 
1.341893 -0.274101 0.000000 
1.296043 -0.269858 0.000000 
1.261204 -0.268499 0.000000 
1.218718 -0.269539 0.000000 
1.163913 -0.274391 0.000000 
1.130430 -0.278689 0.000000 
1.092116 -0.284469 0.000000 
1.048386 -0.291909 0.000000 
1.984601 -0.684504 0.033333 
1.967193 -0.646261 0.033333 
1.950496 -0.613812 0.033333 
1.934477 -0.586495 0.033333 
1.904349 -0.544612 0.033333 
1.876550 -0.515323 0.033333 
1.850826 -0.493339 0.033333 
1.815446 -0.465258 0.033333 
1.782566 -0.440491 0.033333 
1.750597 -0.417817 0.033333 
1.718217 -0.396219 0.033333 
1.685177 -0.375482 0.033333 
1.651498 -0.355592 0.033333 
1.617197 -0.336567 0.033333 
1.582288 -0.318543 0.033333 
1.546785 -0.301687 0.033333 
1.510693 -0.286193 0.033333 
1.473991 -0.272366 0.033333 
1.436649 -0.260538 0.033333 
1.398305 -0.250979 0.033333 
1.357269 -0.243716 0.033333 
1.311516 -0.238716 0.033333 
1.276584 -0.237122 0.033333 
1.233200 -0.239513 0.033333 
1.175907 -0.248881 0.033333 
1.140340 -0.257118 0.033333 
1.099249 -0.268222 0.033333 
1.051953 -0.282567 0.033333 
1.982818 -0.689175 0.033333 
1.965280 -0.651061 0.033333 
1.948458 -0.618739 0.033333 
1.932319 -0.591547 0.033333 
1.901964 -0.549910 0.033333 
1.873956 -0.520858 0.033333 
1.848038 -0.499102 0.033333 
1.812392 -0.471350 0.033333 
1.779269 -0.446900 0.033333 
1.747070 -0.424546 0.033333 
1.714469 -0.403276 0.033333 
1.681217 -0.382873 0.033333 
1.647337 -0.363320 0.033333 
1.612850 -0.344629 0.033333 
1.577772 -0.326933 0.033333 
1.542117 -0.310396 0.033333 
1.505892 -0.295211 0.033333 
1.469077 -0.281681 0.033333 
1.431643 -0.270136 0.033333 
1.393230 -0.260847 0.033333 
1.352144 -0.253844 0.033333 
1.306358 -0.249096 0.033333 
1.271457 -0.247581 0.033333 
1.228373 -0.249522 0.033333 
1.171909 -0.257385 0.033333 
1.137036 -0.264308 0.033333 
1.096871 -0.273638 0.033333 
1.050764 -0.285681 0.033333 
1.981034 -0.693846 0.033333 
1.963366 -0.655861 0.033333 
1.946419 -0.623667 0.033333 
1.930161 -0.596600 0.033333 
1.899579 -0.555207 0.033333 
1.871362 -0.526393 0.033333 
1.845249 -0.504865 0.033333 
1.809338 -0.477441 0.033333 
1.775971 -0.453310 0.033333 
1.743544 -0.431275 0.033333 
1.710721 -0.410333 0.033333 
1.677257 -0.390265 0.033333 
1.643176 -0.371048 0.033333 
1.608504 -0.352690 0.033333 
1.573256 -0.335322 0.033333 
1.537449 -0.319105 0.033333 
1.501091 -0.304229 0.033333 
1.464163 -0.290996 0.033333 
1.426638 -0.279734 0.033333 
1.388154 -0.270716 0.033333 
1.347018 -0.263973 0.033333 
1.301201 -0.259477 0.033333 
1.266331 -0.258040 0.033333 
1.223545 -0.259530 0.033333 
1.167911 -0.265888 0.033333 
1.133733 -0.271498 0.033333 
1.094494 -0.279053 0.033333 
1.049575 -0.288795 0.033333 
1.979250 -0.698518 0.033333 
1.961452 -0.660662 0.033333 
1.944381 -0.628594 0.033333 
1.928002 -0.601653 0.033333 
1.897194 -0.560505 0.033333 
1.868768 -0.531927 0.033333 
1.842461 -0.510629 0.033333 
1.806283 -0.483532 0.033333 
1.772674 -0.459720 0.033333 
1.740018 -0.438004 0.033333 
1.706974 -0.417390 0.033333 
1.673297 -0.397656 0.033333 
1.639016 -0.378776 0.033333 
1.604157 -0.360752 0.033333 
1.568740 -0.343711 0.033333 
1.532781 -0.327814 0.033333 
1.496290 -0.313247 0.033333 
1.459249 -0.300310 0.033333 
1.421632 -0.289333 0.033333 
1.383079 -0.280585 0.033333 
1.341893 -0.274101 0.033333 
1.296043 -0.269858 0.033333 
1.261204 -0.268499 0.033333 
1.218718 -0.269539 0.033333 
1.163913 -0.274391 0.033333 
1.130430 -0.278689 0.033333 
1.092116 -0.284469 0.033333 
1.048386 -0.291909 0.033333 
1.984601 -0.684504 0.066667 
1.967193 -0.646261 0.066667 
1.950496 -0.613812 0.066667 
1.934477 -0.586495 0.066667 
1.904349 -0.544612 0.066667 
1.876550 -0.515323 0.066667 
1.850826 -0.493339 0.066667 
1.815446 -0.465258 0.066667 
1.782566 -0.440491 0.066667 
1.750597 -0.417817 0.066667 
1.718217 -0.396219 0.066667 
1.685177 -0.375482 0.066667 
1.651498 -0.355592 0.066667 
1.617197 -0.336567 0.066667 
1.582288 -0.318543 0.066667 
1.546785 -0.301687 0.066667 
1.510693 -0.286193 0.066667 
1.473991 -0.272366 0.066667 
1.436649 -0.260538 0.066667 
1.398305 -0.250979 0.066667 
1.357269 -0.243716 0.066667 
1.311516 -0.238716 0.066667 
1.276584 -0.237122 0.066667 
1.233200 -0.239513 0.066667 
1.175907 -0.248881 0.066667 
1.140340 -0.257118 0.066667 
1.099249 -0.268222 0.066667 
1.051953 -0.282567 0.066667 
1.982818 -0.689175 0.066667 
1.965280 -0.651061 0.066667 
1.948458 -0.618739 0.066667 
1.932319 -0.591547 0.066667 
1.901964 -0.549910 0.066667 
1.873956 -0.520858 0.066667 
1.848038 -0.499102 0.066667 
1.812392 -0.471350 0.066667 
1.779269 -0.446900 0.066667 
1.747070 -0.424546 0.066667 
1.714469 -0.403276 0.066667 
1.681217 -0.382873 0.066667 
1.647337 -0.363320 0.066667 
1.612850 -0.344629 0.066667 
1.577772 -0.326933 0.066667 
1.542117 -0.310396 0.066667 
1.505892 -0.295211 0.066667 
1.469077 -0.281681 0.066667 
1.431643 -0.270136 0.066667 
1.393230 -0.260847 0.066667 
1.352144 -0.253844 0.066667 
1.306358 -0.249096 0.066667 
1.271457 -0.247581 0.066667 
1.228373 -0.249522 0.066667 
1.171909 -0.257385 0.066667 
1.137036 -0.264308 0.066667 
1.096871 -0.273638 0.066667 
1.050764 -0.285681 0.066667 
1.981034 -0.693846 0.066667 
1.963366 -0.655861 0.066667 
1.946419 -0.623667 0.066667 
1.930161 -0.596600 0.066667 
1.899579 -0.555207 0.066667 
1.871362 -0.526393 0.066667 
1.845249 -0.504865 0.066667 
1.809338 -0.477441 0.066667 
1.775971 -0.453310 0.066667 
1.743544 -0.431275 0.066667 
1.710721 -0.410333 0.066667 
1.677257 -0.390265 0.066667 
1.643176 -0.371048 0.066667 
1.608504 -0.352690 0.066667 
1.573256 -0.335322 0.066667 
1.537449 -0.319105 0.066667 
1.501091 -0.304229 0.066667 
1.464163 -0.290996 0.066667 
1.426638 -0.279734 0.066667 
1.388154 -0.270716 0.066667 
1.347018 -0.263973 0.066667 
1.301201 -0.259477 0.066667 
1.266331 -0.258040 0.066667 
1.223545 -0.259530 0.066667 
1.167911 -0.265888 0.066667 
1.133733 -0.271498 0.066667 
1.094494 -0.279053 0.066667 
1.049575 -0.288795 0.066667 
1.979250 -0.698518 0.066667 
1.961452 -0.660662 0.066667 
1.944381 -0.628594 0.066667 
1.928002 -0.601653 0.066667 
1.897194 -0.560505 0.066667 
1.868768 -0.531927 0.066667 
1.842461 -0.510629 0.066667 
1.806283 -0.483532 0.066667 
1.772674 -0.459720 0.066667 
1.740018 -0.438004 0.066667 
1.706974 -0.417390 0.066667 
1.673297 -0.397656 0.066667 
1.639016 -0.378776 0.066667 
1.604157 -0.360752 0.066667 
1.568740 -0.343711 0.066667 
1.532781 -0.327814 0.066667 
1.496290 -0.313247 0.066667 
1.459249 -0.300310 0.066667 
1.421632 -0.289333 0.066667 
1.383079 -0.280585 0.066667 
1.341893 -0.274101 0.066667 
1.296043 -0.269858 0.066667 
1.261204 -0.268499 0.066667 
1.218718 -0.269539 0.066667 
1.163913 -0.274391 0.066667 
1.130430 -0.278689 0.066667 
1.092116 -0.284469 0.066667 
1.048386 -0.291909 0.066667 
1.984601 -0.684504 0.100000 
1.967193 -0.646261 0.100000 
1.950496 -0.613812 0.100000 
1.934477 -0.586495 0.100000 
1.904349 -0.544612 0.100000 
1.876550 -0.515323 0.100000 
1.850826 -0.493339 0.100000 
1.815446 -0.465258 0.100000 
1.782566 -0.440491 0.100000 
1.750597 -0.417817 0.100000 
1.718217 -0.396219 0.100000 
1.685177 -0.375482 0.100000 
1.651498 -0.355592 0.100000 
1.617197 -0.336567 0.100000 
1.582288 -0.318543 0.100000 
1.546785 -0.301687 0.100000 
1.510693 -0.286193 0.100000 
1.473991 -0.272366 0.100000 
1.436649 -0.260538 0.100000 
1.398305 -0.250979 0.100000 
1.357269 -0.243716 0.100000 
1.311516 -0.238716 0.100000 
1.276584 -0.237122 0.100000 
1.233200 -0.239513 0.100000 
1.175907 -0.248881 0.100000 
1.140340 -0.257118 0.100000 
1.099249 -0.268222 0.100000 
1.051953 -0.282567 0.100000 
1.982818 -0.689175 0.100000 
1.965280 -0.651061 0.100000 
1.948458 -0.618739 0.100000 
1.932319 -0.591547 0.100000 
1.901964 -0.549910 0.100000 
1.873956 -0.520858 0.100000 
1.848038 -0.499102 0.100000 
1.812392 -0.471350 0.100000 
1.779269 -0.446900 0.100000 
1.747070 -0.424546 0.100000 
1.714469 -0.403276 0.100000 
1.681217 -0.382873 0.100000 
1.647337 -0.363320 0.100000 
1.612850 -0.344629 0.100000 
1.577772 -0.326933 0.100000 
1.542117 -0.310396 0.100000 
1.505892 -0.295211 0.100000 
1.469077 -0.281681 0.100000 
1.431643 -0.270136 0.100000 
1.393230 -0.260847 0.100000 
1.352144 -0.253844 0.100000 
1.306358 -0.249096 0.100000 
1.271457 -0.247581 0.100000 
1.228373 -0.249522 0.100000 
1.171909 -0.257385 0.100000 
1.137036 -0.264308 0.100000 
1.096871 -0.273638 0.100000 
1.050764 -0.285681 0.100000 
1.981034 -0.693846 0.100000 
1.963366 -0.655861 0.100000 
1.946419 -0.623667 0.100000 
1.930161 -0.596600 0.100000 
1.899579 -0.555207 0.100000 
1.871362 -0.526393 0.100000 
1.845249 -0.504865 0.100000 
1.809338 -0.477441 0.100000 
1.775971 -0.453310 0.100000 
1.743544 -0.431275 0.100000 
1.710721 -0.410333 0.100000 
1.677257 -0.390265 0.100000 
1.643176 -0.371048 0.100000 
1.608504 -0.352690 0.100000 
1.573256 -0.335322 0.100000 
1.537449 -0.319105 0.100000 
1.501091 -0.304229 0.100000 
1.464163 -0.290996 0.100000 
1.426638 -0.279734 0.100000 
1.388154 -0.270716 0.100000 
1.347018 -0.263973 0.100000 
1.301201 -0.259477 0.100000 
1.266331 -0.258040 0.100000 
1.223545 -0.259530 0.100000 
1.167911 -0.265888 0.100000 
1.133733 -0.271498 0.100000 
1.094494 -0.279053 0.100000 
1.049575 -0.288795 0.100000 
1.979250 -0.698518 0.100000 
1.961452 -0.660662 0.100000 
1.944381 -0.628594 0.100000 
1.928002 -0.601653 0.100000 
1.897194 -0.560505 0.100000 
1.868768 -0.531927 0.100000 
1.842461 -0.510629 0.100000 
1.806283 -0.483532 0.100000 
1.772674 -0.459720 0.100000 
1.740018 -0.438004 0.100000 
1.706974 -0.417390 0.100000 
1.673297 -0.397656 0.100000 
1.639016 -0.378776 0.100000 
1.604157 -0.360752 0.100000 
1.568740 -0.343711 0.100000 
1.532781 -0.327814 0.100000 
1.496290 -0.313247 0.100000 
1.459249 -0.300310 0.100000 
1.421632 -0.289333 0.100000 
1.383079 -0.280585 0.100000 
1.341893 -0.274101 0.100000 
1.296043 -0.269858 0.100000 
1.261204 -0.268499 0.100000 
1.218718 -0.269539 0.100000 
1.163913 -0.274391 0.100000 
1.130430 -0.278689 0.100000 
1.092116 -0.284469 0.100000 
1.048386 -0.291909 0.100000 
