VARIABLES = "CoordinateX", "CoordinateY", "CoordinateZ"
Zone T="FFD_vol0" I=10 J=2 K=2
DATAPACKING=POINT
1.000000 -0.005923 0.000000 
0.969214 0.055984 0.000000 
0.877406 0.149633 0.000000 
0.740031 0.250802 0.000000 
0.585055 0.310088 0.000000 
0.414945 0.310088 0.000000 
0.259970 0.250802 0.000000 
0.122594 0.149633 0.000000 
0.030786 0.055984 0.000000 
0.000000 -0.005923 0.000000 
1.000000 -0.015923 0.000000 
0.965146 0.032536 0.000000 
0.880763 0.112047 0.000000 
0.744454 0.214920 0.000000 
0.590302 0.278100 0.000000 
0.409699 0.278100 0.000000 
0.255546 0.214920 0.000000 
0.119237 0.112047 0.000000 
0.034854 0.032536 0.000000 
0.000000 -0.015923 0.000000 
1.000000 -0.005923 0.100000 
0.969214 0.055984 0.100000 
0.877406 0.149633 0.100000 
0.740031 0.250802 0.100000 
0.585055 0.310088 0.100000 
0.414945 0.310088 0.100000 
0.259970 0.250802 0.100000 
0.122594 0.149633 0.100000 
0.030786 0.055984 0.100000 
0.000000 -0.005923 0.100000 
1.000000 -0.015923 0.100000 
0.965146 0.032536 0.100000 
0.880763 0.112047 0.100000 
0.744454 0.214920 0.100000 
0.590302 0.278100 0.100000 
0.409699 0.278100 0.100000 
0.255546 0.214920 0.100000 
0.119237 0.112047 0.100000 
0.034854 0.032536 0.100000 
0.000000 -0.015923 0.100000 
Zone T="embedding_vol" I=28 J=4 K=4
DATAPACKING=POINT
1.000000 -0.005923 0.000000 
0.989199 0.014166 0.000000 
0.977403 0.033207 0.000000 
0.964737 0.051272 0.000000 
0.937294 0.084753 0.000000 
0.907869 0.115169 0.000000 
0.877462 0.143082 0.000000 
0.831522 0.181156 0.000000 
0.784955 0.214768 0.000000 
0.737097 0.243822 0.000000 
0.687409 0.268130 0.000000 
0.635858 0.287140 0.000000 
0.582533 0.300207 0.000000 
0.527698 0.306795 0.000000 
0.472302 0.306795 0.000000 
0.417467 0.300207 0.000000 
0.364142 0.287140 0.000000 
0.312591 0.268130 0.000000 
0.262903 0.243822 0.000000 
0.215045 0.214768 0.000000 
0.168478 0.181156 0.000000 
0.122538 0.143082 0.000000 
0.092131 0.115169 0.000000 
0.062706 0.084753 0.000000 
0.035263 0.051272 0.000000 
0.022597 0.033207 0.000000 
0.010801 0.014166 0.000000 
0.000000 -0.005923 0.000000 
1.000000 -0.009256 0.000000 
0.988839 0.009416 0.000000 
0.976848 0.027191 0.000000 
0.964128 0.044134 0.000000 
0.936894 0.075771 0.000000 
0.907928 0.104833 0.000000 
0.878021 0.131826 0.000000 
0.832593 0.169199 0.000000 
0.786286 0.202701 0.000000 
0.738558 0.231983 0.000000 
0.688948 0.256630 0.000000 
0.637328 0.275985 0.000000 
0.583653 0.289328 0.000000 
0.528118 0.296060 0.000000 
0.471882 0.296060 0.000000 
0.416347 0.289328 0.000000 
0.362672 0.275985 0.000000 
0.311052 0.256630 0.000000 
0.261442 0.231983 0.000000 
0.213714 0.202701 0.000000 
0.167407 0.169199 0.000000 
0.121979 0.131826 0.000000 
0.092072 0.104833 0.000000 
0.063106 0.075771 0.000000 
0.035872 0.044134 0.000000 
0.023152 0.027191 0.000000 
0.011161 0.009416 0.000000 
0.000000 -0.009256 0.000000 
1.000000 -0.012589 0.000000 
0.988478 0.004666 0.000000 
0.976294 0.021175 0.000000 
0.963520 0.036995 0.000000 
0.936495 0.066789 0.000000 
0.907987 0.094498 0.000000 
0.878581 0.120571 0.000000 
0.833664 0.157241 0.000000 
0.787618 0.190635 0.000000 
0.740019 0.220144 0.000000 
0.690487 0.245130 0.000000 
0.638799 0.264830 0.000000 
0.584773 0.278449 0.000000 
0.528538 0.285325 0.000000 
0.471462 0.285325 0.000000 
0.415227 0.278449 0.000000 
0.361201 0.264830 0.000000 
0.309513 0.245130 0.000000 
0.259981 0.220144 0.000000 
0.212382 0.190635 0.000000 
0.166336 0.157241 0.000000 
0.121419 0.120571 0.000000 
0.092013 0.094498 0.000000 
0.063505 0.066789 0.000000 
0.036480 0.036995 0.000000 
0.023706 0.021175 0.000000 
0.011522 0.004666 0.000000 
0.000000 -0.012589 0.000000 
1.000000 -0.015923 0.000000 
0.988118 -0.000084 0.000000 
0.975740 0.015159 0.000000 
0.962912 0.029856 0.000000 
0.936096 0.057807 0.000000 
0.908047 0.084162 0.000000 
0.879140 0.109315 0.000000 
0.834736 0.145284 0.000000 
0.788949 0.178568 0.000000 
0.741480 0.208305 0.000000 
0.692025 0.233630 0.000000 
0.640269 0.253675 0.000000 
0.585893 0.267570 0.000000 
0.528958 0.274590 0.000000 
0.471042 0.274590 0.000000 
0.414107 0.267570 0.000000 
0.359731 0.253675 0.000000 
0.307975 0.233630 0.000000 
0.258520 0.208305 0.000000 
0.211051 0.178568 0.000000 
0.165264 0.145284 0.000000 
0.120860 0.109315 0.000000 
0.091953 0.084162 0.000000 
0.063904 0.057807 0.000000 
0.037088 0.029856 0.000000 
0.024260 0.015159 0.000000 
0.011882 -0.000084 0.000000 
0.000000 -0.015923 0.000000 
1.000000 -0.005923 0.033333 
0.989199 0.014166 0.033333 
0.977403 0.033207 0.033333 
0.964737 0.051272 0.033333 
0.937294 0.084753 0.033333 
0.907869 0.115169 0.033333 
0.877462 0.143082 0.033333 
0.831522 0.181156 0.033333 
0.784955 0.214768 0.033333 
0.737097 0.243822 0.033333 
0.687409 0.268130 0.033333 
0.635858 0.287140 0.033333 
0.582533 0.300207 0.033333 
0.527698 0.306795 0.033333 
0.472302 0.306795 0.033333 
0.417467 0.300207 0.033333 
0.364142 0.287140 0.033333 
0.312591 0.268130 0.033333 
0.262903 0.243822 0.033333 
0.215045 0.214768 0.033333 
0.168478 0.181156 0.033333 
0.122538 0.143082 0.033333 
0.092131 0.115169 0.033333 
0.062706 0.084753 0.033333 
0.035263 0.051272 0.033333 
0.022597 0.033207 0.033333 
0.010801 0.014166 0.033333 
0.000000 -0.005923 0.033333 
1.000000 -0.009256 0.033333 
0.988839 0.009416 0.033333 
0.976848 0.027191 0.033333 
0.964128 0.044134 0.033333 
0.936894 0.075771 0.033333 
0.907928 0.104833 0.033333 
0.878021 0.131826 0.033333 
0.832593 0.169199 0.033333 
0.786286 0.202701 0.033333 
0.738558 0.231983 0.033333 
0.688948 0.256630 0.033333 
0.637328 0.275985 0.033333 
0.583653 0.289328 0.033333 
0.528118 0.296060 0.033333 
0.471882 0.296060 0.033333 
0.416347 0.289328 0.033333 
0.362672 0.275985 0.033333 
0.311052 0.256630 0.033333 
0.261442 0.231983 0.033333 
0.213714 0.202701 0.033333 
0.167407 0.169199 0.033333 
0.121979 0.131826 0.033333 
0.092072 0.104833 0.033333 
0.063106 0.075771 0.033333 
0.035872 0.044134 0.033333 
0.023152 0.027191 0.033333 
0.011161 0.009416 0.033333 
0.000000 -0.009256 0.033333 
1.000000 -0.012589 0.033333 
0.988478 0.004666 0.033333 
0.976294 0.021175 0.033333 
0.963520 0.036995 0.033333 
0.936495 0.066789 0.033333 
0.907987 0.094498 0.033333 
0.878581 0.120571 0.033333 
0.833664 0.157241 0.033333 
0.787618 0.190635 0.033333 
0.740019 0.220144 0.033333 
0.690487 0.245130 0.033333 
0.638799 0.264830 0.033333 
0.584773 0.278449 0.033333 
0.528538 0.285325 0.033333 
0.471462 0.285325 0.033333 
0.415227 0.278449 0.033333 
0.361201 0.264830 0.033333 
0.309513 0.245130 0.033333 
0.259981 0.220144 0.033333 
0.212382 0.190635 0.033333 
0.166336 0.157241 0.033333 
0.121419 0.120571 0.033333 
0.092013 0.094498 0.033333 
0.063505 0.066789 0.033333 
0.036480 0.036995 0.033333 
0.023706 0.021175 0.033333 
0.011522 0.004666 0.033333 
0.000000 -0.012589 0.033333 
1.000000 -0.015923 0.033333 
0.988118 -0.000084 0.033333 
0.975740 0.015159 0.033333 
0.962912 0.029856 0.033333 
0.936096 0.057807 0.033333 
0.908047 0.084162 0.033333 
0.879140 0.109315 0.033333 
0.834736 0.145284 0.033333 
0.788949 0.178568 0.033333 
0.741480 0.208305 0.033333 
0.692025 0.233630 0.033333 
0.640269 0.253675 0.033333 
0.585893 0.267570 0.033333 
0.528958 0.274590 0.033333 
0.471042 0.274590 0.033333 
0.414107 0.267570 0.033333 
0.359731 0.253675 0.033333 
0.307975 0.233630 0.033333 
0.258520 0.208305 0.033333 
0.211051 0.178568 0.033333 
0.165264 0.145284 0.033333 
0.120860 0.109315 0.033333 
0.091953 0.084162 0.033333 
0.063904 0.057807 0.033333 
0.037088 0.029856 0.033333 
0.024260 0.015159 0.033333 
0.011882 -0.000084 0.033333 
0.000000 -0.015923 0.033333 
1.000000 -0.005923 0.066667 
0.989199 0.014166 0.066667 
0.977403 0.033207 0.066667 
0.964737 0.051272 0.066667 
0.937294 0.084753 0.066667 
0.907869 0.115169 0.066667 
0.877462 0.143082 0.066667 
0.831522 0.181156 0.066667 
0.784955 0.214768 0.066667 
0.737097 0.243822 0.066667 
0.687409 0.268130 0.066667 
0.635858 0.287140 0.066667 
0.582533 0.300207 0.066667 
0.527698 0.306795 0.066667 
0.472302 0.306795 0.066667 
0.417467 0.300207 0.066667 
0.364142 0.287140 0.066667 
0.312591 0.268130 0.066667 
0.262903 0.243822 0.066667 
0.215045 0.214768 0.066667 
0.168478 0.181156 0.066667 
0.122538 0.143082 0.066667 
0.092131 0.115169 0.066667 
0.062706 0.084753 0.066667 
0.035263 0.051272 0.066667 
0.022597 0.033207 0.066667 
0.010801 0.014166 0.066667 
0.000000 -0.005923 0.066667 
1.000000 -0.009256 0.066667 
0.988839 0.009416 0.066667 
0.976848 0.027191 0.066667 
0.964128 0.044134 0.066667 
0.936894 0.075771 0.066667 
0.907928 0.104833 0.066667 
0.878021 0.131826 0.066667 
0.832593 0.169199 0.066667 
0.786286 0.202701 0.066667 
0.738558 0.231983 0.066667 
0.688948 0.256630 0.066667 
0.637328 0.275985 0.066667 
0.583653 0.289328 0.066667 
0.528118 0.296060 0.066667 
0.471882 0.296060 0.066667 
0.416347 0.289328 0.066667 
0.362672 0.275985 0.066667 
0.311052 0.256630 0.066667 
0.261442 0.231983 0.066667 
0.213714 0.202701 0.066667 
0.167407 0.169199 0.066667 
0.121979 0.131826 0.066667 
0.092072 0.104833 0.066667 
0.063106 0.075771 0.066667 
0.035872 0.044134 0.066667 
0.023152 0.027191 0.066667 
0.011161 0.009416 0.066667 
0.000000 -0.009256 0.066667 
1.000000 -0.012589 0.066667 
0.988478 0.004666 0.066667 
0.976294 0.021175 0.066667 
0.963520 0.036995 0.066667 
0.936495 0.066789 0.066667 
0.907987 0.094498 0.066667 
0.878581 0.120571 0.066667 
0.833664 0.157241 0.066667 
0.787618 0.190635 0.066667 
0.740019 0.220144 0.066667 
0.690487 0.245130 0.066667 
0.638799 0.264830 0.066667 
0.584773 0.278449 0.066667 
0.528538 0.285325 0.066667 
0.471462 0.285325 0.066667 
0.415227 0.278449 0.066667 
0.361201 0.264830 0.066667 
0.309513 0.245130 0.066667 
0.259981 0.220144 0.066667 
0.212382 0.190635 0.066667 
0.166336 0.157241 0.066667 
0.121419 0.120571 0.066667 
0.092013 0.094498 0.066667 
0.063505 0.066789 0.066667 
0.036480 0.036995 0.066667 
0.023706 0.021175 0.066667 
0.011522 0.004666 0.066667 
0.000000 -0.012589 0.066667 
1.000000 -0.015923 0.066667 
0.988118 -0.000084 0.066667 
0.975740 0.015159 0.066667 
0.962912 0.029856 0.066667 
0.936096 0.057807 0.066667 
0.908047 0.084162 0.066667 
0.879140 0.109315 0.066667 
0.834736 0.145284 0.066667 
0.788949 0.178568 0.066667 
0.741480 0.208305 0.066667 
0.692025 0.233630 0.066667 
0.640269 0.253675 0.066667 
0.585893 0.267570 0.066667 
0.528958 0.274590 0.066667 
0.471042 0.274590 0.066667 
0.414107 0.267570 0.066667 
0.359731 0.253675 0.066667 
0.307975 0.233630 0.066667 
0.258520 0.208305 0.066667 
0.211051 0.178568 0.066667 
0.165264 0.145284 0.066667 
0.120860 0.109315 0.066667 
0.091953 0.084162 0.066667 
0.063904 0.057807 0.066667 
0.037088 0.029856 0.066667 
0.024260 0.015159 0.066667 
0.011882 -0.000084 0.066667 
0.000000 -0.015923 0.066667 
1.000000 -0.005923 0.100000 
0.989199 0.014166 0.100000 
0.977403 0.033207 0.100000 
0.964737 0.051272 0.100000 
0.937294 0.084753 0.100000 
0.907869 0.115169 0.100000 
0.877462 0.143082 0.100000 
0.831522 0.181156 0.100000 
0.784955 0.214768 0.100000 
0.737097 0.243822 0.100000 
0.687409 0.268130 0.100000 
0.635858 0.287140 0.100000 
0.582533 0.300207 0.100000 
0.527698 0.306795 0.100000 
0.472302 0.306795 0.100000 
0.417467 0.300207 0.100000 
0.364142 0.287140 0.100000 
0.312591 0.268130 0.100000 
0.262903 0.243822 0.100000 
0.215045 0.214768 0.100000 
0.168478 0.181156 0.100000 
0.122538 0.143082 0.100000 
0.092131 0.115169 0.100000 
0.062706 0.084753 0.100000 
0.035263 0.051272 0.100000 
0.022597 0.033207 0.100000 
0.010801 0.014166 0.100000 
0.000000 -0.005923 0.100000 
1.000000 -0.009256 0.100000 
0.988839 0.009416 0.100000 
0.976848 0.027191 0.100000 
0.964128 0.044134 0.100000 
0.936894 0.075771 0.100000 
0.907928 0.104833 0.100000 
0.878021 0.131826 0.100000 
0.832593 0.169199 0.100000 
0.786286 0.202701 0.100000 
0.738558 0.231983 0.100000 
0.688948 0.256630 0.100000 
0.637328 0.275985 0.100000 
0.583653 0.289328 0.100000 
0.528118 0.296060 0.100000 
0.471882 0.296060 0.100000 
0.416347 0.289328 0.100000 
0.362672 0.275985 0.100000 
0.311052 0.256630 0.100000 
0.261442 0.231983 0.100000 
0.213714 0.202701 0.100000 
0.167407 0.169199 0.100000 
0.121979 0.131826 0.100000 
0.092072 0.104833 0.100000 
0.063106 0.075771 0.100000 
0.035872 0.044134 0.100000 
0.023152 0.027191 0.100000 
0.011161 0.009416 0.100000 
0.000000 -0.009256 0.100000 
1.000000 -0.012589 0.100000 
0.988478 0.004666 0.100000 
0.976294 0.021175 0.100000 
0.963520 0.036995 0.100000 
0.936495 0.066789 0.100000 
0.907987 0.094498 0.100000 
0.878581 0.120571 0.100000 
0.833664 0.157241 0.100000 
0.787618 0.190635 0.100000 
0.740019 0.220144 0.100000 
0.690487 0.245130 0.100000 
0.638799 0.264830 0.100000 
0.584773 0.278449 0.100000 
0.528538 0.285325 0.100000 
0.471462 0.285325 0.100000 
0.415227 0.278449 0.100000 
0.361201 0.264830 0.100000 
0.309513 0.245130 0.100000 
0.259981 0.220144 0.100000 
0.212382 0.190635 0.100000 
0.166336 0.157241 0.100000 
0.121419 0.120571 0.100000 
0.092013 0.094498 0.100000 
0.063505 0.066789 0.100000 
0.036480 0.036995 0.100000 
0.023706 0.021175 0.100000 
0.011522 0.004666 0.100000 
0.000000 -0.012589 0.100000 
1.000000 -0.015923 0.100000 
0.988118 -0.000084 0.100000 
0.975740 0.015159 0.100000 
0.962912 0.029856 0.100000 
0.936096 0.057807 0.100000 
0.908047 0.084162 0.100000 
0.879140 0.109315 0.100000 
0.834736 0.145284 0.100000 
0.788949 0.178568 0.100000 
0.741480 0.208305 0.100000 
0.692025 0.233630 0.100000 
0.640269 0.253675 0.100000 
0.585893 0.267570 0.100000 
0.528958 0.274590 0.100000 
0.471042 0.274590 0.100000 
0.414107 0.267570 0.100000 
0.359731 0.253675 0.100000 
0.307975 0.233630 0.100000 
0.258520 0.208305 0.100000 
0.211051 0.178568 0.100000 
0.165264 0.145284 0.100000 
0.120860 0.109315 0.100000 
0.091953 0.084162 0.100000 
0.063904 0.057807 0.100000 
0.037088 0.029856 0.100000 
0.024260 0.015159 0.100000 
0.011882 -0.000084 0.100000 
0.000000 -0.015923 0.100000 
Zone T="FFD_vol1" I=10 J=2 K=2
DATAPACKING=POINT
2.048880 -0.591351 0.000000 
1.989823 -0.489748 0.000000 
1.899717 -0.423394 0.000000 
1.803118 -0.357722 0.000000 
1.700885 -0.299657 0.000000 
1.593452 -0.249770 0.000000 
1.481437 -0.212994 0.000000 
1.364540 -0.199610 0.000000 
1.246893 -0.206597 0.000000 
1.097514 -0.256968 0.000000 
2.044249 -0.605619 0.000000 
1.984062 -0.505244 0.000000 
1.892107 -0.441184 0.000000 
1.793552 -0.378372 0.000000 
1.689532 -0.323463 0.000000 
1.580714 -0.276629 0.000000 
1.467808 -0.242585 0.000000 
1.350605 -0.231518 0.000000 
1.233027 -0.239974 0.000000 
1.094427 -0.266479 0.000000 
2.048880 -0.591351 0.100000 
1.989823 -0.489748 0.100000 
1.899717 -0.423394 0.100000 
1.803118 -0.357722 0.100000 
1.700885 -0.299657 0.100000 
1.593452 -0.249770 0.100000 
1.481437 -0.212994 0.100000 
1.364540 -0.199610 0.100000 
1.246893 -0.206597 0.100000 
1.097514 -0.256968 0.100000 
2.044249 -0.605619 0.100000 
1.984062 -0.505244 0.100000 
1.892107 -0.441184 0.100000 
1.793552 -0.378372 0.100000 
1.689532 -0.323463 0.100000 
1.580714 -0.276629 0.100000 
1.467808 -0.242585 0.100000 
1.350605 -0.231518 0.100000 
1.233027 -0.239974 0.100000 
1.094427 -0.266479 0.100000 
Zone T="embedding_vol" I=28 J=4 K=4
DATAPACKING=POINT
2.048880 -0.591351 0.000000 
2.029702 -0.559931 0.000000 
2.011500 -0.533064 0.000000 
1.994210 -0.510231 0.000000 
1.962119 -0.474605 0.000000 
1.932930 -0.448918 0.000000 
1.906144 -0.429037 0.000000 
1.869387 -0.403222 0.000000 
1.835277 -0.380198 0.000000 
1.802179 -0.358990 0.000000 
1.768730 -0.338793 0.000000 
1.734671 -0.319463 0.000000 
1.700018 -0.301020 0.000000 
1.664789 -0.283513 0.000000 
1.629005 -0.267097 0.000000 
1.592688 -0.251955 0.000000 
1.555857 -0.238303 0.000000 
1.518506 -0.226489 0.000000 
1.480623 -0.216892 0.000000 
1.441863 -0.209835 0.000000 
1.400534 -0.205394 0.000000 
1.354611 -0.203587 0.000000 
1.319659 -0.204325 0.000000 
1.276456 -0.209065 0.000000 
1.219694 -0.220634 0.000000 
1.184569 -0.229861 0.000000 
1.144064 -0.241855 0.000000 
1.097514 -0.256968 0.000000 
2.047336 -0.596107 0.000000 
2.028036 -0.564823 0.000000 
2.009715 -0.538089 0.000000 
1.992312 -0.515388 0.000000 
1.960007 -0.480017 0.000000 
1.930621 -0.454578 0.000000 
1.903652 -0.434935 0.000000 
1.866647 -0.409461 0.000000 
1.832311 -0.386767 0.000000 
1.799000 -0.365890 0.000000 
1.765346 -0.346032 0.000000 
1.731092 -0.327046 0.000000 
1.696256 -0.308950 0.000000 
1.660858 -0.291785 0.000000 
1.624922 -0.275705 0.000000 
1.588470 -0.260890 0.000000 
1.551522 -0.247554 0.000000 
1.514073 -0.236041 0.000000 
1.476113 -0.226733 0.000000 
1.437296 -0.219949 0.000000 
1.395931 -0.215770 0.000000 
1.349989 -0.214217 0.000000 
1.315071 -0.215031 0.000000 
1.272145 -0.219307 0.000000 
1.216134 -0.229330 0.000000 
1.181636 -0.237210 0.000000 
1.141965 -0.247385 0.000000 
1.096485 -0.260138 0.000000 
2.045792 -0.600863 0.000000 
2.026369 -0.569714 0.000000 
2.007930 -0.543114 0.000000 
1.990413 -0.520544 0.000000 
1.957895 -0.485430 0.000000 
1.928312 -0.460237 0.000000 
1.901161 -0.440833 0.000000 
1.863906 -0.415700 0.000000 
1.829344 -0.393336 0.000000 
1.795820 -0.372790 0.000000 
1.761963 -0.353271 0.000000 
1.727513 -0.334630 0.000000 
1.692494 -0.316879 0.000000 
1.656928 -0.300057 0.000000 
1.620839 -0.284314 0.000000 
1.584251 -0.269826 0.000000 
1.547186 -0.256804 0.000000 
1.509639 -0.245594 0.000000 
1.471602 -0.236574 0.000000 
1.432730 -0.230063 0.000000 
1.391327 -0.226146 0.000000 
1.345366 -0.224847 0.000000 
1.310484 -0.225738 0.000000 
1.267833 -0.229548 0.000000 
1.212574 -0.238026 0.000000 
1.178703 -0.244559 0.000000 
1.139866 -0.252914 0.000000 
1.095456 -0.263309 0.000000 
2.044249 -0.605619 0.000000 
2.024702 -0.574606 0.000000 
2.006145 -0.548138 0.000000 
1.988515 -0.525700 0.000000 
1.955783 -0.490842 0.000000 
1.926002 -0.465897 0.000000 
1.898670 -0.446730 0.000000 
1.861166 -0.421939 0.000000 
1.826377 -0.399905 0.000000 
1.792641 -0.379689 0.000000 
1.758579 -0.360509 0.000000 
1.723935 -0.342214 0.000000 
1.688732 -0.324809 0.000000 
1.652997 -0.308330 0.000000 
1.616755 -0.292922 0.000000 
1.580033 -0.278761 0.000000 
1.542851 -0.266055 0.000000 
1.505206 -0.255147 0.000000 
1.467092 -0.246415 0.000000 
1.428163 -0.240178 0.000000 
1.386724 -0.236522 0.000000 
1.340744 -0.235477 0.000000 
1.305897 -0.236444 0.000000 
1.263522 -0.239790 0.000000 
1.209014 -0.246721 0.000000 
1.175770 -0.251908 0.000000 
1.137767 -0.258444 0.000000 
1.094427 -0.266479 0.000000 
2.048880 -0.591351 0.033333 
2.029702 -0.559931 0.033333 
2.011500 -0.533064 0.033333 
1.994210 -0.510231 0.033333 
1.962119 -0.474605 0.033333 
1.932930 -0.448918 0.033333 
1.906144 -0.429037 0.033333 
1.869387 -0.403222 0.033333 
1.835277 -0.380198 0.033333 
1.802179 -0.358990 0.033333 
1.768730 -0.338793 0.033333 
1.734671 -0.319463 0.033333 
1.700018 -0.301020 0.033333 
1.664789 -0.283513 0.033333 
1.629005 -0.267097 0.033333 
1.592688 -0.251955 0.033333 
1.555857 -0.238303 0.033333 
1.518506 -0.226489 0.033333 
1.480623 -0.216892 0.033333 
1.441863 -0.209835 0.033333 
1.400534 -0.205394 0.033333 
1.354611 -0.203587 0.033333 
1.319659 -0.204325 0.033333 
1.276456 -0.209065 0.033333 
1.219694 -0.220634 0.033333 
1.184569 -0.229861 0.033333 
1.144064 -0.241855 0.033333 
1.097514 -0.256968 0.033333 
2.047336 -0.596107 0.033333 
2.028036 -0.564823 0.033333 
2.009715 -0.538089 0.033333 
1.992312 -0.515388 0.033333 
1.960007 -0.480017 0.033333 
1.930621 -0.454578 0.033333 
1.903652 -0.434935 0.033333 
1.866647 -0.409461 0.033333 
1.832311 -0.386767 0.033333 
1.799000 -0.365890 0.033333 
1.765346 -0.346032 0.033333 
1.731092 -0.327046 0.033333 
1.696256 -0.308950 0.033333 
1.660858 -0.291785 0.033333 
1.624922 -0.275705 0.033333 
1.588470 -0.260890 0.033333 
1.551522 -0.247554 0.033333 
1.514073 -0.236041 0.033333 
1.476113 -0.226733 0.033333 
1.437296 -0.219949 0.033333 
1.395931 -0.215770 0.033333 
1.349989 -0.214217 0.033333 
1.315071 -0.215031 0.033333 
1.272145 -0.219307 0.033333 
1.216134 -0.229330 0.033333 
1.181636 -0.237210 0.033333 
1.141965 -0.247385 0.033333 
1.096485 -0.260138 0.033333 
2.045792 -0.600863 0.033333 
2.026369 -0.569714 0.033333 
2.007930 -0.543114 0.033333 
1.990413 -0.520544 0.033333 
1.957895 -0.485430 0.033333 
1.928312 -0.460237 0.033333 
1.901161 -0.440833 0.033333 
1.863906 -0.415700 0.033333 
1.829344 -0.393336 0.033333 
1.795820 -0.372790 0.033333 
1.761963 -0.353271 0.033333 
1.727513 -0.334630 0.033333 
1.692494 -0.316879 0.033333 
1.656928 -0.300057 0.033333 
1.620839 -0.284314 0.033333 
1.584251 -0.269826 0.033333 
1.547186 -0.256804 0.033333 
1.509639 -0.245594 0.033333 
1.471602 -0.236574 0.033333 
1.432730 -0.230063 0.033333 
1.391327 -0.226146 0.033333 
1.345366 -0.224847 0.033333 
1.310484 -0.225738 0.033333 
1.267833 -0.229548 0.033333 
1.212574 -0.238026 0.033333 
1.178703 -0.244559 0.033333 
1.139866 -0.252914 0.033333 
1.095456 -0.263309 0.033333 
2.044249 -0.605619 0.033333 
2.024702 -0.574606 0.033333 
2.006145 -0.548138 0.033333 
1.988515 -0.525700 0.033333 
1.955783 -0.490842 0.033333 
1.926002 -0.465897 0.033333 
1.898670 -0.446730 0.033333 
1.861166 -0.421939 0.033333 
1.826377 -0.399905 0.033333 
1.792641 -0.379689 0.033333 
1.758579 -0.360509 0.033333 
1.723935 -0.342214 0.033333 
1.688732 -0.324809 0.033333 
1.652997 -0.308330 0.033333 
1.616755 -0.292922 0.033333 
1.580033 -0.278761 0.033333 
1.542851 -0.266055 0.033333 
1.505206 -0.255147 0.033333 
1.467092 -0.246415 0.033333 
1.428163 -0.240178 0.033333 
1.386724 -0.236522 0.033333 
1.340744 -0.235477 0.033333 
1.305897 -0.236444 0.033333 
1.263522 -0.239790 0.033333 
1.209014 -0.246721 0.033333 
1.175770 -0.251908 0.033333 
1.137767 -0.258444 0.033333 
1.094427 -0.266479 0.033333 
2.048880 -0.591351 0.066667 
2.029702 -0.559931 0.066667 
2.011500 -0.533064 0.066667 
1.994210 -0.510231 0.066667 
1.962119 -0.474605 0.066667 
1.932930 -0.448918 0.066667 
1.906144 -0.429037 0.066667 
1.869387 -0.403222 0.066667 
1.835277 -0.380198 0.066667 
1.802179 -0.358990 0.066667 
1.768730 -0.338793 0.066667 
1.734671 -0.319463 0.066667 
1.700018 -0.301020 0.066667 
1.664789 -0.283513 0.066667 
1.629005 -0.267097 0.066667 
1.592688 -0.251955 0.066667 
1.555857 -0.238303 0.066667 
1.518506 -0.226489 0.066667 
1.480623 -0.216892 0.066667 
1.441863 -0.209835 0.066667 
1.400534 -0.205394 0.066667 
1.354611 -0.203587 0.066667 
1.319659 -0.204325 0.066667 
1.276456 -0.209065 0.066667 
1.219694 -0.220634 0.066667 
1.184569 -0.229861 0.066667 
1.144064 -0.241855 0.066667 
1.097514 -0.256968 0.066667 
2.047336 -0.596107 0.066667 
2.028036 -0.564823 0.066667 
2.009715 -0.538089 0.066667 
1.992312 -0.515388 0.066667 
1.960007 -0.480017 0.066667 
1.930621 -0.454578 0.066667 
1.903652 -0.434935 0.066667 
1.866647 -0.409461 0.066667 
1.832311 -0.386767 0.066667 
1.799000 -0.365890 0.066667 
1.765346 -0.346032 0.066667 
1.731092 -0.327046 0.066667 
1.696256 -0.308950 0.066667 
1.660858 -0.291785 0.066667 
1.624922 -0.275705 0.066667 
1.588470 -0.260890 0.066667 
1.551522 -0.247554 0.066667 
1.514073 -0.236041 0.066667 
1.476113 -0.226733 0.066667 
1.437296 -0.219949 0.066667 
1.395931 -0.215770 0.066667 
1.349989 -0.214217 0.066667 
1.315071 -0.215031 0.066667 
1.272145 -0.219307 0.066667 
1.216134 -0.229330 0.066667 
1.181636 -0.237210 0.066667 
1.141965 -0.247385 0.066667 
1.096485 -0.260138 0.066667 
2.045792 -0.600863 0.066667 
2.026369 -0.569714 0.066667 
2.007930 -0.543114 0.066667 
1.990413 -0.520544 0.066667 
1.957895 -0.485430 0.066667 
1.928312 -0.460237 0.066667 
1.901161 -0.440833 0.066667 
1.863906 -0.415700 0.066667 
1.829344 -0.393336 0.066667 
1.795820 -0.372790 0.066667 
1.761963 -0.353271 0.066667 
1.727513 -0.334630 0.066667 
1.692494 -0.316879 0.066667 
1.656928 -0.300057 0.066667 
1.620839 -0.284314 0.066667 
1.584251 -0.269826 0.066667 
1.547186 -0.256804 0.066667 
1.509639 -0.245594 0.066667 
1.471602 -0.236574 0.066667 
1.432730 -0.230063 0.066667 
1.391327 -0.226146 0.066667 
1.345366 -0.224847 0.066667 
1.310484 -0.225738 0.066667 
1.267833 -0.229548 0.066667 
1.212574 -0.238026 0.066667 
1.178703 -0.244559 0.066667 
1.139866 -0.252914 0.066667 
1.095456 -0.263309 0.066667 
2.044249 -0.605619 0.066667 
2.024702 -0.574606 0.066667 
2.006145 -0.548138 0.066667 
1.988515 -0.525700 0.066667 
1.955783 -0.490842 0.066667 
1.926002 -0.465897 0.066667 
1.898670 -0.446730 0.066667 
1.861166 -0.421939 0.066667 
1.826377 -0.399905 0.066667 
1.792641 -0.379689 0.066667 
1.758579 -0.360509 0.066667 
1.723935 -0.342214 0.066667 
1.688732 -0.324809 0.066667 
1.652997 -0.308330 0.066667 
1.616755 -0.292922 0.066667 
1.580033 -0.278761 0.066667 
1.542851 -0.266055 0.066667 
1.505206 -0.255147 0.066667 
1.467092 -0.246415 0.066667 
1.428163 -0.240178 0.066667 
1.386724 -0.236522 0.066667 
1.340744 -0.235477 0.066667 
1.305897 -0.236444 0.066667 
1.263522 -0.239790 0.066667 
1.209014 -0.246721 0.066667 
1.175770 -0.251908 0.066667 
1.137767 -0.258444 0.066667 
1.094427 -0.266479 0.066667 
2.048880 -0.591351 0.100000 
2.029702 -0.559931 0.100000 
2.011500 -0.533064 0.100000 
1.994210 -0.510231 0.100000 
1.962119 -0.474605 0.100000 
1.932930 -0.448918 0.100000 
1.906144 -0.429037 0.100000 
1.869387 -0.403222 0.100000 
1.835277 -0.380198 0.100000 
1.802179 -0.358990 0.100000 
1.768730 -0.338793 0.100000 
1.734671 -0.319463 0.100000 
1.700018 -0.301020 0.100000 
1.664789 -0.283513 0.100000 
1.629005 -0.267097 0.100000 
1.592688 -0.251955 0.100000 
1.555857 -0.238303 0.100000 
1.518506 -0.226489 0.100000 
1.480623 -0.216892 0.100000 
1.441863 -0.209835 0.100000 
1.400534 -0.205394 0.100000 
1.354611 -0.203587 0.100000 
1.319659 -0.204325 0.100000 
1.276456 -0.209065 0.100000 
1.219694 -0.220634 0.100000 
1.184569 -0.229861 0.100000 
1.144064 -0.241855 0.100000 
1.097514 -0.256968 0.100000 
2.047336 -0.596107 0.100000 
2.028036 -0.564823 0.100000 
2.009715 -0.538089 0.100000 
1.992312 -0.515388 0.100000 
1.960007 -0.480017 0.100000 
1.930621 -0.454578 0.100000 
1.903652 -0.434935 0.100000 
1.866647 -0.409461 0.100000 
1.832311 -0.386767 0.100000 
1.799000 -0.365890 0.100000 
1.765346 -0.346032 0.100000 
1.731092 -0.327046 0.100000 
1.696256 -0.308950 0.100000 
1.660858 -0.291785 0.100000 
1.624922 -0.275705 0.100000 
1.588470 -0.260890 0.100000 
1.551522 -0.247554 0.100000 
1.514073 -0.236041 0.100000 
1.476113 -0.226733 0.100000 
1.437296 -0.219949 0.100000 
1.395931 -0.215770 0.100000 
1.349989 -0.214217 0.100000 
1.315071 -0.215031 0.100000 
1.272145 -0.219307 0.100000 
1.216134 -0.229330 0.100000 
1.181636 -0.237210 0.100000 
1.141965 -0.247385 0.100000 
1.096485 -0.260138 0.100000 
2.045792 -0.600863 0.100000 
2.026369 -0.569714 0.100000 
2.007930 -0.543114 0.100000 
1.990413 -0.520544 0.100000 
1.957895 -0.485430 0.100000 
1.928312 -0.460237 0.100000 
1.901161 -0.440833 0.100000 
1.863906 -0.415700 0.100000 
1.829344 -0.393336 0.100000 
1.795820 -0.372790 0.100000 
1.761963 -0.353271 0.100000 
1.727513 -0.334630 0.100000 
1.692494 -0.316879 0.100000 
1.656928 -0.300057 0.100000 
1.620839 -0.284314 0.100000 
1.584251 -0.269826 0.100000 
1.547186 -0.256804 0.100000 
1.509639 -0.245594 0.100000 
1.471602 -0.236574 0.100000 
1.432730 -0.230063 0.100000 
1.391327 -0.226146 0.100000 
1.345366 -0.224847 0.100000 
1.310484 -0.225738 0.100000 
1.267833 -0.229548 0.100000 
1.212574 -0.238026 0.100000 
1.178703 -0.244559 0.100000 
1.139866 -0.252914 0.100000 
1.095456 -0.263309 0.100000 
2.044249 -0.605619 0.100000 
2.024702 -0.574606 0.100000 
2.006145 -0.548138 0.100000 
1.988515 -0.525700 0.100000 
1.955783 -0.490842 0.100000 
1.926002 -0.465897 0.100000 
1.898670 -0.446730 0.100000 
1.861166 -0.421939 0.100000 
1.826377 -0.399905 0.100000 
1.792641 -0.379689 0.100000 
1.758579 -0.360509 0.100000 
1.723935 -0.342214 0.100000 
1.688732 -0.324809 0.100000 
1.652997 -0.308330 0.100000 
1.616755 -0.292922 0.100000 
1.580033 -0.278761 0.100000 
1.542851 -0.266055 0.100000 
1.505206 -0.255147 0.100000 
1.467092 -0.246415 0.100000 
1.428163 -0.240178 0.100000 
1.386724 -0.236522 0.100000 
1.340744 -0.235477 0.100000 
1.305897 -0.236444 0.100000 
1.263522 -0.239790 0.100000 
1.209014 -0.246721 0.100000 
1.175770 -0.251908 0.100000 
1.137767 -0.258444 0.100000 
1.094427 -0.266479 0.100000 
