VARIABLES = "CoordinateX", "CoordinateY", "CoordinateZ"
Zone T="FFD_vol0" I=10 J=2 K=2
DATAPACKING=POINT
1.000000 0.004741 0.000000 
0.973716 0.083965 0.000000 
0.899672 0.174355 0.000000 
0.763006 0.282962 0.000000 
0.615441 0.344523 0.000000 
0.384559 0.345117 0.000000 
0.236994 0.283967 0.000000 
0.100328 0.178012 0.000000 
0.026284 0.086463 0.000000 
0.000000 0.004437 0.000000 
1.000000 -0.006631 0.000000 
0.962798 -0.010576 0.000000 
0.913486 0.028067 0.000000 
0.797974 0.127143 0.000000 
0.643930 0.213601 0.000000 
0.356070 0.213533 0.000000 
0.202026 0.126897 0.000000 
0.086514 0.028229 0.000000 
0.037202 -0.013299 0.000000 
0.000000 -0.008750 0.000000 
1.000000 0.005447 0.100000 
0.973716 0.082708 0.100000 
0.899672 0.175356 0.100000 
0.763006 0.282910 0.100000 
0.615441 0.344508 0.100000 
0.384559 0.344866 0.100000 
0.236994 0.283487 0.100000 
0.100328 0.177186 0.100000 
0.026284 0.083379 0.100000 
0.000000 0.006525 0.100000 
1.000000 -0.008067 0.100000 
0.962798 -0.010914 0.100000 
0.913486 0.028167 0.100000 
0.797974 0.126721 0.100000 
0.643930 0.213418 0.100000 
0.356070 0.213283 0.100000 
0.202026 0.126417 0.100000 
0.086514 0.027402 0.100000 
0.037202 -0.016382 0.100000 
0.000000 -0.006663 0.100000 
Zone T="embedding_vol" I=28 J=4 K=4
DATAPACKING=POINT
1.000000 0.004741 0.000000 
0.990850 0.029929 0.000000 
0.980958 0.052840 0.000000 
0.970376 0.073716 0.000000 
0.947360 0.110336 0.000000 
0.922228 0.141736 0.000000 
0.895405 0.169859 0.000000 
0.852785 0.208935 0.000000 
0.807865 0.244270 0.000000 
0.761190 0.275121 0.000000 
0.712765 0.300783 0.000000 
0.660448 0.320701 0.000000 
0.601555 0.334362 0.000000 
0.534880 0.341329 0.000000 
0.465120 0.341493 0.000000 
0.398445 0.334826 0.000000 
0.339552 0.321408 0.000000 
0.287235 0.301757 0.000000 
0.238810 0.276500 0.000000 
0.192135 0.246243 0.000000 
0.147215 0.211505 0.000000 
0.104595 0.172784 0.000000 
0.077772 0.144638 0.000000 
0.052640 0.112901 0.000000 
0.029624 0.075528 0.000000 
0.019042 0.054091 0.000000 
0.009150 0.030479 0.000000 
0.000000 0.004437 0.000000 
1.000000 0.000951 0.000000 
0.989912 0.017584 0.000000 
0.979586 0.033228 0.000000 
0.969004 0.048001 0.000000 
0.946999 0.075398 0.000000 
0.923753 0.100712 0.000000 
0.899124 0.124879 0.000000 
0.859421 0.160305 0.000000 
0.816683 0.194096 0.000000 
0.771310 0.225094 0.000000 
0.723143 0.252123 0.000000 
0.669776 0.273945 0.000000 
0.608246 0.289301 0.000000 
0.537318 0.297143 0.000000 
0.462682 0.297245 0.000000 
0.391754 0.289586 0.000000 
0.330224 0.274374 0.000000 
0.276857 0.252720 0.000000 
0.228690 0.225964 0.000000 
0.183317 0.195375 0.000000 
0.140579 0.161950 0.000000 
0.100876 0.126620 0.000000 
0.076247 0.102264 0.000000 
0.053001 0.076536 0.000000 
0.030996 0.048494 0.000000 
0.020414 0.033313 0.000000 
0.010088 0.017201 0.000000 
0.000000 0.000042 0.000000 
1.000000 -0.002840 0.000000 
0.988975 0.005239 0.000000 
0.978215 0.013617 0.000000 
0.967632 0.022286 0.000000 
0.946637 0.040461 0.000000 
0.925278 0.059689 0.000000 
0.902843 0.079899 0.000000 
0.866057 0.111674 0.000000 
0.825501 0.143922 0.000000 
0.781431 0.175067 0.000000 
0.733520 0.203464 0.000000 
0.679104 0.227188 0.000000 
0.614937 0.244240 0.000000 
0.539756 0.252957 0.000000 
0.460244 0.252996 0.000000 
0.385063 0.244346 0.000000 
0.320896 0.227340 0.000000 
0.266480 0.203684 0.000000 
0.218569 0.175428 0.000000 
0.174499 0.144506 0.000000 
0.133943 0.112395 0.000000 
0.097157 0.080456 0.000000 
0.074722 0.059891 0.000000 
0.053363 0.040171 0.000000 
0.032368 0.021460 0.000000 
0.021785 0.012535 0.000000 
0.011025 0.003923 0.000000 
0.000000 -0.004354 0.000000 
1.000000 -0.006631 0.000000 
0.988037 -0.007106 0.000000 
0.976844 -0.005994 0.000000 
0.966259 -0.003428 0.000000 
0.946275 0.005523 0.000000 
0.926804 0.018665 0.000000 
0.906562 0.034919 0.000000 
0.872693 0.063044 0.000000 
0.834319 0.093748 0.000000 
0.791552 0.125040 0.000000 
0.743897 0.154805 0.000000 
0.688432 0.180431 0.000000 
0.621627 0.199180 0.000000 
0.542195 0.208771 0.000000 
0.457805 0.208747 0.000000 
0.378373 0.199105 0.000000 
0.311568 0.180305 0.000000 
0.256103 0.154647 0.000000 
0.208448 0.124892 0.000000 
0.165681 0.093638 0.000000 
0.127307 0.062840 0.000000 
0.093438 0.034292 0.000000 
0.073196 0.017517 0.000000 
0.053725 0.003806 0.000000 
0.033741 -0.005574 0.000000 
0.023156 -0.008244 0.000000 
0.011963 -0.009355 0.000000 
0.000000 -0.008750 0.000000 
1.000000 0.004976 0.033333 
0.990850 0.029983 0.033333 
0.980958 0.052778 0.033333 
0.970376 0.073593 0.033333 
0.947360 0.110217 0.033333 
0.922228 0.141714 0.033333 
0.895405 0.169946 0.033333 
0.852785 0.209081 0.033333 
0.807865 0.244378 0.033333 
0.761190 0.275164 0.033333 
0.712765 0.300787 0.033333 
0.660448 0.320690 0.033333 
0.601555 0.334342 0.033333 
0.534880 0.341293 0.033333 
0.465120 0.341436 0.033333 
0.398445 0.334743 0.033333 
0.339552 0.321299 0.033333 
0.287235 0.301620 0.033333 
0.238810 0.276333 0.033333 
0.192135 0.246036 0.033333 
0.147215 0.211218 0.033333 
0.104595 0.172340 0.033333 
0.077772 0.144055 0.033333 
0.052640 0.112279 0.033333 
0.029624 0.075116 0.033333 
0.019042 0.053924 0.033333 
0.009150 0.030675 0.033333 
0.000000 0.005133 0.033333 
1.000000 0.000948 0.033333 
0.989912 0.017497 0.033333 
0.979586 0.033095 0.033333 
0.969004 0.047852 0.033333 
0.946999 0.075285 0.033333 
0.923753 0.100681 0.033333 
0.899124 0.124926 0.033333 
0.859421 0.160388 0.033333 
0.816683 0.194144 0.033333 
0.771310 0.225090 0.033333 
0.723143 0.252092 0.033333 
0.669776 0.273907 0.033333 
0.608246 0.289262 0.033333 
0.537318 0.297095 0.033333 
0.462682 0.297180 0.033333 
0.391754 0.289500 0.033333 
0.330224 0.274264 0.033333 
0.276857 0.252584 0.033333 
0.228690 0.225797 0.033333 
0.183317 0.195168 0.033333 
0.140579 0.161663 0.033333 
0.100876 0.126176 0.033333 
0.076247 0.101682 0.033333 
0.053001 0.075914 0.033333 
0.030996 0.048082 0.033333 
0.020414 0.033146 0.033333 
0.010088 0.017397 0.033333 
0.000000 0.000737 0.033333 
1.000000 -0.003081 0.033333 
0.988975 0.005012 0.033333 
0.978215 0.013413 0.033333 
0.967632 0.022111 0.033333 
0.946637 0.040353 0.033333 
0.925278 0.059649 0.033333 
0.902843 0.079906 0.033333 
0.866057 0.111695 0.033333 
0.825501 0.143910 0.033333 
0.781431 0.175016 0.033333 
0.733520 0.203397 0.033333 
0.679104 0.227123 0.033333 
0.614937 0.244182 0.033333 
0.539756 0.252896 0.033333 
0.460244 0.252924 0.033333 
0.385063 0.244256 0.033333 
0.320896 0.227229 0.033333 
0.266480 0.203547 0.033333 
0.218569 0.175261 0.033333 
0.174499 0.144300 0.033333 
0.133943 0.112108 0.033333 
0.097157 0.080012 0.033333 
0.074722 0.059308 0.033333 
0.053363 0.039549 0.033333 
0.032368 0.021048 0.033333 
0.021785 0.012367 0.033333 
0.011025 0.004119 0.033333 
0.000000 -0.003659 0.033333 
1.000000 -0.007109 0.033333 
0.988037 -0.007474 0.033333 
0.976844 -0.006270 0.033333 
0.966259 -0.003630 0.033333 
0.946275 0.005422 0.033333 
0.926804 0.018616 0.033333 
0.906562 0.034887 0.033333 
0.872693 0.063002 0.033333 
0.834319 0.093676 0.033333 
0.791552 0.124941 0.033333 
0.743897 0.154703 0.033333 
0.688432 0.180340 0.033333 
0.621627 0.199102 0.033333 
0.542195 0.208697 0.033333 
0.457805 0.208668 0.033333 
0.378373 0.199013 0.033333 
0.311568 0.180194 0.033333 
0.256103 0.154511 0.033333 
0.208448 0.124725 0.033333 
0.165681 0.093431 0.033333 
0.127307 0.062553 0.033333 
0.093438 0.033847 0.033333 
0.073196 0.016934 0.033333 
0.053725 0.003184 0.033333 
0.033741 -0.005986 0.033333 
0.023156 -0.008411 0.033333 
0.011963 -0.009159 0.033333 
0.000000 -0.008054 0.033333 
1.000000 0.005212 0.066667 
0.990850 0.030037 0.066667 
0.980958 0.052715 0.066667 
0.970376 0.073470 0.066667 
0.947360 0.110097 0.066667 
0.922228 0.141692 0.066667 
0.895405 0.170033 0.066667 
0.852785 0.209226 0.066667 
0.807865 0.244487 0.066667 
0.761190 0.275207 0.066667 
0.712765 0.300791 0.066667 
0.660448 0.320679 0.066667 
0.601555 0.334322 0.066667 
0.534880 0.341258 0.066667 
0.465120 0.341378 0.066667 
0.398445 0.334660 0.066667 
0.339552 0.321190 0.066667 
0.287235 0.301484 0.066667 
0.238810 0.276167 0.066667 
0.192135 0.245829 0.066667 
0.147215 0.210930 0.066667 
0.104595 0.171895 0.066667 
0.077772 0.143473 0.066667 
0.052640 0.111657 0.066667 
0.029624 0.074704 0.066667 
0.019042 0.053757 0.066667 
0.009150 0.030871 0.066667 
0.000000 0.005829 0.066667 
1.000000 0.000945 0.066667 
0.989912 0.017411 0.066667 
0.979586 0.032962 0.066667 
0.969004 0.047703 0.066667 
0.946999 0.075171 0.066667 
0.923753 0.100650 0.066667 
0.899124 0.124973 0.066667 
0.859421 0.160471 0.066667 
0.816683 0.194192 0.066667 
0.771310 0.225086 0.066667 
0.723143 0.252061 0.066667 
0.669776 0.273869 0.066667 
0.608246 0.289222 0.066667 
0.537318 0.297046 0.066667 
0.462682 0.297115 0.066667 
0.391754 0.289413 0.066667 
0.330224 0.274154 0.066667 
0.276857 0.252447 0.066667 
0.228690 0.225631 0.066667 
0.183317 0.194961 0.066667 
0.140579 0.161376 0.066667 
0.100876 0.125731 0.066667 
0.076247 0.101099 0.066667 
0.053001 0.075292 0.066667 
0.030996 0.047670 0.066667 
0.020414 0.032979 0.066667 
0.010088 0.017593 0.066667 
0.000000 0.001433 0.066667 
1.000000 -0.003322 0.066667 
0.988975 0.004785 0.066667 
0.978215 0.013208 0.066667 
0.967632 0.021935 0.066667 
0.946637 0.040246 0.066667 
0.925278 0.059608 0.066667 
0.902843 0.079914 0.066667 
0.866057 0.111715 0.066667 
0.825501 0.143898 0.066667 
0.781431 0.174965 0.066667 
0.733520 0.203331 0.066667 
0.679104 0.227059 0.066667 
0.614937 0.244123 0.066667 
0.539756 0.252835 0.066667 
0.460244 0.252852 0.066667 
0.385063 0.244167 0.066667 
0.320896 0.227118 0.066667 
0.266480 0.203411 0.066667 
0.218569 0.175095 0.066667 
0.174499 0.144093 0.066667 
0.133943 0.111821 0.066667 
0.097157 0.079567 0.066667 
0.074722 0.058725 0.066667 
0.053363 0.038927 0.066667 
0.032368 0.020636 0.066667 
0.021785 0.012200 0.066667 
0.011025 0.004315 0.066667 
0.000000 -0.002963 0.066667 
1.000000 -0.007588 0.066667 
0.988037 -0.007841 0.066667 
0.976844 -0.006545 0.066667 
0.966259 -0.003832 0.066667 
0.946275 0.005321 0.066667 
0.926804 0.018566 0.066667 
0.906562 0.034854 0.066667 
0.872693 0.062959 0.066667 
0.834319 0.093603 0.066667 
0.791552 0.124843 0.066667 
0.743897 0.154601 0.066667 
0.688432 0.180249 0.066667 
0.621627 0.199024 0.066667 
0.542195 0.208624 0.066667 
0.457805 0.208588 0.066667 
0.378373 0.198920 0.066667 
0.311568 0.180082 0.066667 
0.256103 0.154374 0.066667 
0.208448 0.124559 0.066667 
0.165681 0.093225 0.066667 
0.127307 0.062266 0.066667 
0.093438 0.033403 0.066667 
0.073196 0.016351 0.066667 
0.053725 0.002562 0.066667 
0.033741 -0.006398 0.066667 
0.023156 -0.008578 0.066667 
0.011963 -0.008964 0.066667 
0.000000 -0.007359 0.066667 
1.000000 0.005447 0.100000 
0.990850 0.030090 0.100000 
0.980958 0.052653 0.100000 
0.970376 0.073348 0.100000 
0.947360 0.109977 0.100000 
0.922228 0.141670 0.100000 
0.895405 0.170120 0.100000 
0.852785 0.209372 0.100000 
0.807865 0.244595 0.100000 
0.761190 0.275251 0.100000 
0.712765 0.300795 0.100000 
0.660448 0.320668 0.100000 
0.601555 0.334301 0.100000 
0.534880 0.341222 0.100000 
0.465120 0.341320 0.100000 
0.398445 0.334577 0.100000 
0.339552 0.321081 0.100000 
0.287235 0.301348 0.100000 
0.238810 0.276000 0.100000 
0.192135 0.245623 0.100000 
0.147215 0.210643 0.100000 
0.104595 0.171451 0.100000 
0.077772 0.142890 0.100000 
0.052640 0.111035 0.100000 
0.029624 0.074292 0.100000 
0.019042 0.053590 0.100000 
0.009150 0.031067 0.100000 
0.000000 0.006525 0.100000 
1.000000 0.000942 0.100000 
0.989912 0.017324 0.100000 
0.979586 0.032829 0.100000 
0.969004 0.047554 0.100000 
0.946999 0.075058 0.100000 
0.923753 0.100619 0.100000 
0.899124 0.125021 0.100000 
0.859421 0.160554 0.100000 
0.816683 0.194241 0.100000 
0.771310 0.225082 0.100000 
0.723143 0.252030 0.100000 
0.669776 0.273831 0.100000 
0.608246 0.289183 0.100000 
0.537318 0.296998 0.100000 
0.462682 0.297050 0.100000 
0.391754 0.289327 0.100000 
0.330224 0.274044 0.100000 
0.276857 0.252311 0.100000 
0.228690 0.225464 0.100000 
0.183317 0.194755 0.100000 
0.140579 0.161088 0.100000 
0.100876 0.125287 0.100000 
0.076247 0.100516 0.100000 
0.053001 0.074670 0.100000 
0.030996 0.047258 0.100000 
0.020414 0.032811 0.100000 
0.010088 0.017789 0.100000 
0.000000 0.002129 0.100000 
1.000000 -0.003562 0.100000 
0.988975 0.004558 0.100000 
0.978215 0.013004 0.100000 
0.967632 0.021760 0.100000 
0.946637 0.040139 0.100000 
0.925278 0.059568 0.100000 
0.902843 0.079922 0.100000 
0.866057 0.111735 0.100000 
0.825501 0.143886 0.100000 
0.781431 0.174914 0.100000 
0.733520 0.203264 0.100000 
0.679104 0.226995 0.100000 
0.614937 0.244065 0.100000 
0.539756 0.252774 0.100000 
0.460244 0.252779 0.100000 
0.385063 0.244078 0.100000 
0.320896 0.227007 0.100000 
0.266480 0.203274 0.100000 
0.218569 0.174928 0.100000 
0.174499 0.143886 0.100000 
0.133943 0.111534 0.100000 
0.097157 0.079123 0.100000 
0.074722 0.058142 0.100000 
0.053363 0.038305 0.100000 
0.032368 0.020224 0.100000 
0.021785 0.012033 0.100000 
0.011025 0.004511 0.100000 
0.000000 -0.002267 0.100000 
1.000000 -0.008067 0.100000 
0.988037 -0.008208 0.100000 
0.976844 -0.006821 0.100000 
0.966259 -0.004034 0.100000 
0.946275 0.005220 0.100000 
0.926804 0.018517 0.100000 
0.906562 0.034822 0.100000 
0.872693 0.062917 0.100000 
0.834319 0.093531 0.100000 
0.791552 0.124745 0.100000 
0.743897 0.154499 0.100000 
0.688432 0.180158 0.100000 
0.621627 0.198946 0.100000 
0.542195 0.208550 0.100000 
0.457805 0.208509 0.100000 
0.378373 0.198828 0.100000 
0.311568 0.179970 0.100000 
0.256103 0.154237 0.100000 
0.208448 0.124392 0.100000 
0.165681 0.093018 0.100000 
0.127307 0.061979 0.100000 
0.093438 0.032959 0.100000 
0.073196 0.015769 0.100000 
0.053725 0.001940 0.100000 
0.033741 -0.006810 0.100000 
0.023156 -0.008745 0.100000 
0.011963 -0.008768 0.100000 
0.000000 -0.006663 0.100000 
Zone T="FFD_vol1" I=10 J=2 K=2
DATAPACKING=POINT
1.827064 -0.671573 0.000000 
1.786464 -0.590973 0.000000 
1.722659 -0.493707 0.000000 
1.650510 -0.400266 0.000000 
1.570297 -0.313044 0.000000 
1.482111 -0.233998 0.000000 
1.385969 -0.166201 0.000000 
1.278534 -0.117799 0.000000 
1.163678 -0.085141 0.000000 
1.006475 -0.092621 0.000000 
1.818460 -0.685163 0.000000 
1.776420 -0.603921 0.000000 
1.710175 -0.508534 0.000000 
1.635319 -0.417204 0.000000 
1.552474 -0.332545 0.000000 
1.462071 -0.255875 0.000000 
1.364277 -0.190050 0.000000 
1.255870 -0.143517 0.000000 
1.140651 -0.117027 0.000000 
1.000739 -0.111861 0.000000 
1.827064 -0.667163 0.100000 
1.786464 -0.592574 0.100000 
1.722659 -0.494294 0.100000 
1.650510 -0.400518 0.100000 
1.570297 -0.313324 0.100000 
1.482111 -0.234290 0.100000 
1.385969 -0.165963 0.100000 
1.278534 -0.117479 0.100000 
1.163678 -0.088012 0.100000 
1.006475 -0.089022 0.100000 
1.818460 -0.680753 0.100000 
1.776420 -0.605521 0.100000 
1.710175 -0.509120 0.100000 
1.635319 -0.417456 0.100000 
1.552474 -0.332825 0.100000 
1.462071 -0.256334 0.100000 
1.364277 -0.190181 0.100000 
1.255870 -0.144098 0.100000 
1.140651 -0.118980 0.100000 
1.000739 -0.110404 0.100000 
Zone T="embedding_vol" I=28 J=4 K=4
DATAPACKING=POINT
1.827064 -0.671573 0.000000 
1.813846 -0.645859 0.000000 
1.801234 -0.622321 0.000000 
1.789187 -0.600769 0.000000 
1.766632 -0.562857 0.000000 
1.745870 -0.530593 0.000000 
1.726585 -0.502450 0.000000 
1.699723 -0.465189 0.000000 
1.674307 -0.432044 0.000000 
1.649166 -0.401302 0.000000 
1.623325 -0.371549 0.000000 
1.596591 -0.342560 0.000000 
1.568968 -0.314407 0.000000 
1.540459 -0.287169 0.000000 
1.511064 -0.260953 0.000000 
1.480785 -0.235873 0.000000 
1.449601 -0.212074 0.000000 
1.417410 -0.189827 0.000000 
1.384087 -0.169434 0.000000 
1.349199 -0.151021 0.000000 
1.311074 -0.134024 0.000000 
1.267726 -0.117702 0.000000 
1.234069 -0.107128 0.000000 
1.191351 -0.098100 0.000000 
1.133715 -0.092192 0.000000 
1.097472 -0.090899 0.000000 
1.055303 -0.090977 0.000000 
1.006475 -0.092621 0.000000 
1.824196 -0.676103 0.000000 
1.810821 -0.650336 0.000000 
1.798056 -0.626780 0.000000 
1.785862 -0.605239 0.000000 
1.763029 -0.567421 0.000000 
1.742006 -0.535314 0.000000 
1.722477 -0.507353 0.000000 
1.695277 -0.470355 0.000000 
1.669547 -0.437461 0.000000 
1.644106 -0.406973 0.000000 
1.617971 -0.377487 0.000000 
1.590949 -0.348773 0.000000 
1.563050 -0.320897 0.000000 
1.534279 -0.293929 0.000000 
1.504641 -0.267974 0.000000 
1.474136 -0.243143 0.000000 
1.442748 -0.219579 0.000000 
1.410375 -0.197555 0.000000 
1.376894 -0.177378 0.000000 
1.341873 -0.159192 0.000000 
1.303635 -0.142510 0.000000 
1.260195 -0.126684 0.000000 
1.226549 -0.116522 0.000000 
1.184231 -0.107654 0.000000 
1.127766 -0.101282 0.000000 
1.092517 -0.099408 0.000000 
1.051678 -0.098609 0.000000 
1.004563 -0.099034 0.000000 
1.821328 -0.680633 0.000000 
1.807796 -0.654813 0.000000 
1.794879 -0.631239 0.000000 
1.782538 -0.609710 0.000000 
1.759426 -0.571985 0.000000 
1.738141 -0.540035 0.000000 
1.718369 -0.512256 0.000000 
1.690831 -0.475521 0.000000 
1.664788 -0.442879 0.000000 
1.639047 -0.412645 0.000000 
1.612617 -0.383425 0.000000 
1.585308 -0.354987 0.000000 
1.557132 -0.327386 0.000000 
1.528100 -0.300689 0.000000 
1.498217 -0.274995 0.000000 
1.467488 -0.250412 0.000000 
1.435895 -0.227083 0.000000 
1.403340 -0.205283 0.000000 
1.369701 -0.185321 0.000000 
1.334546 -0.167363 0.000000 
1.296197 -0.150997 0.000000 
1.252664 -0.135667 0.000000 
1.219029 -0.125915 0.000000 
1.177111 -0.117207 0.000000 
1.121817 -0.110372 0.000000 
1.087562 -0.107917 0.000000 
1.048052 -0.106241 0.000000 
1.002651 -0.105448 0.000000 
1.818460 -0.685163 0.000000 
1.804770 -0.659291 0.000000 
1.791702 -0.635698 0.000000 
1.779214 -0.614181 0.000000 
1.755822 -0.576549 0.000000 
1.734277 -0.544756 0.000000 
1.714261 -0.517159 0.000000 
1.686385 -0.480687 0.000000 
1.660028 -0.448296 0.000000 
1.633988 -0.418316 0.000000 
1.607263 -0.389363 0.000000 
1.579666 -0.361200 0.000000 
1.551214 -0.333876 0.000000 
1.521921 -0.307450 0.000000 
1.491793 -0.282016 0.000000 
1.460839 -0.257682 0.000000 
1.429042 -0.234588 0.000000 
1.396305 -0.213011 0.000000 
1.362508 -0.193265 0.000000 
1.327219 -0.175534 0.000000 
1.288759 -0.159483 0.000000 
1.245133 -0.144650 0.000000 
1.211509 -0.135309 0.000000 
1.169991 -0.126760 0.000000 
1.115868 -0.119463 0.000000 
1.082606 -0.116426 0.000000 
1.044427 -0.113873 0.000000 
1.000739 -0.111861 0.000000 
1.827064 -0.670103 0.033333 
1.813846 -0.644979 0.033333 
1.801234 -0.621889 0.033333 
1.789187 -0.600661 0.033333 
1.766632 -0.563098 0.033333 
1.745870 -0.530909 0.033333 
1.726585 -0.502711 0.033333 
1.699723 -0.465367 0.033333 
1.674307 -0.432173 0.033333 
1.649166 -0.401406 0.033333 
1.623325 -0.371642 0.033333 
1.596591 -0.342651 0.033333 
1.568968 -0.314499 0.033333 
1.540459 -0.287262 0.033333 
1.511064 -0.261040 0.033333 
1.480785 -0.235940 0.033333 
1.449601 -0.212105 0.033333 
1.417410 -0.189813 0.033333 
1.384087 -0.169379 0.033333 
1.349199 -0.150950 0.033333 
1.311074 -0.134007 0.033333 
1.267726 -0.117865 0.033333 
1.234069 -0.107474 0.033333 
1.191351 -0.098513 0.033333 
1.133715 -0.092362 0.033333 
1.097472 -0.090771 0.033333 
1.055303 -0.090400 0.033333 
1.006475 -0.091421 0.033333 
1.824196 -0.674633 0.033333 
1.810821 -0.649456 0.033333 
1.798056 -0.626348 0.033333 
1.785862 -0.605132 0.033333 
1.763029 -0.567662 0.033333 
1.742006 -0.535630 0.033333 
1.722477 -0.507614 0.033333 
1.695277 -0.470534 0.033333 
1.669547 -0.437591 0.033333 
1.644106 -0.407078 0.033333 
1.617971 -0.377580 0.033333 
1.590949 -0.348865 0.033333 
1.563050 -0.320992 0.033333 
1.534279 -0.294029 0.033333 
1.504641 -0.268074 0.033333 
1.474136 -0.243229 0.033333 
1.442748 -0.219636 0.033333 
1.410375 -0.197576 0.033333 
1.376894 -0.177370 0.033333 
1.341873 -0.159181 0.033333 
1.303635 -0.142556 0.033333 
1.260195 -0.126888 0.033333 
1.226549 -0.116877 0.033333 
1.184231 -0.108060 0.033333 
1.127766 -0.101479 0.033333 
1.092517 -0.099351 0.033333 
1.051678 -0.098173 0.033333 
1.004563 -0.098073 0.033333 
1.821328 -0.679163 0.033333 
1.807796 -0.653934 0.033333 
1.794879 -0.630807 0.033333 
1.782538 -0.609602 0.033333 
1.759426 -0.572226 0.033333 
1.738141 -0.540350 0.033333 
1.718369 -0.512517 0.033333 
1.690831 -0.475700 0.033333 
1.664788 -0.443008 0.033333 
1.639047 -0.412749 0.033333 
1.612617 -0.383518 0.033333 
1.585308 -0.355079 0.033333 
1.557132 -0.327485 0.033333 
1.528100 -0.300797 0.033333 
1.498217 -0.275107 0.033333 
1.467488 -0.250518 0.033333 
1.435895 -0.227167 0.033333 
1.403340 -0.205340 0.033333 
1.369701 -0.185361 0.033333 
1.334546 -0.167412 0.033333 
1.296197 -0.151105 0.033333 
1.252664 -0.135910 0.033333 
1.219029 -0.126279 0.033333 
1.177111 -0.117607 0.033333 
1.121817 -0.110596 0.033333 
1.087562 -0.107931 0.033333 
1.048052 -0.105945 0.033333 
1.002651 -0.104724 0.033333 
1.818460 -0.683693 0.033333 
1.804770 -0.658411 0.033333 
1.791702 -0.635267 0.033333 
1.779214 -0.614073 0.033333 
1.755822 -0.576791 0.033333 
1.734277 -0.545071 0.033333 
1.714261 -0.517420 0.033333 
1.686385 -0.480866 0.033333 
1.660028 -0.448426 0.033333 
1.633988 -0.418420 0.033333 
1.607263 -0.389456 0.033333 
1.579666 -0.361294 0.033333 
1.551214 -0.333978 0.033333 
1.521921 -0.307564 0.033333 
1.491793 -0.282141 0.033333 
1.460839 -0.257807 0.033333 
1.429042 -0.234698 0.033333 
1.396305 -0.213103 0.033333 
1.362508 -0.193352 0.033333 
1.327219 -0.175643 0.033333 
1.288759 -0.159654 0.033333 
1.245133 -0.144933 0.033333 
1.211509 -0.135682 0.033333 
1.169991 -0.127154 0.033333 
1.115868 -0.119712 0.033333 
1.082606 -0.116511 0.033333 
1.044427 -0.113717 0.033333 
1.000739 -0.111376 0.033333 
1.827064 -0.668633 0.066667 
1.813846 -0.644099 0.066667 
1.801234 -0.621458 0.066667 
1.789187 -0.600553 0.066667 
1.766632 -0.563340 0.066667 
1.745870 -0.531224 0.066667 
1.726585 -0.502973 0.066667 
1.699723 -0.465546 0.066667 
1.674307 -0.432303 0.066667 
1.649166 -0.401511 0.066667 
1.623325 -0.371736 0.066667 
1.596591 -0.342741 0.066667 
1.568968 -0.314591 0.066667 
1.540459 -0.287355 0.066667 
1.511064 -0.261127 0.066667 
1.480785 -0.236007 0.066667 
1.449601 -0.212135 0.066667 
1.417410 -0.189799 0.066667 
1.384087 -0.169324 0.066667 
1.349199 -0.150879 0.066667 
1.311074 -0.133991 0.066667 
1.267726 -0.118029 0.066667 
1.234069 -0.107819 0.066667 
1.191351 -0.098926 0.066667 
1.133715 -0.092533 0.066667 
1.097472 -0.090644 0.066667 
1.055303 -0.089824 0.066667 
1.006475 -0.090222 0.066667 
1.824196 -0.673163 0.066667 
1.810821 -0.648577 0.066667 
1.798056 -0.625917 0.066667 
1.785862 -0.605024 0.066667 
1.763029 -0.567904 0.066667 
1.742006 -0.535945 0.066667 
1.722477 -0.507876 0.066667 
1.695277 -0.470712 0.066667 
1.669547 -0.437720 0.066667 
1.644106 -0.407182 0.066667 
1.617971 -0.377674 0.066667 
1.590949 -0.348957 0.066667 
1.563050 -0.321088 0.066667 
1.534279 -0.294130 0.066667 
1.504641 -0.268173 0.066667 
1.474136 -0.243315 0.066667 
1.442748 -0.219693 0.066667 
1.410375 -0.197597 0.066667 
1.376894 -0.177363 0.066667 
1.341873 -0.159170 0.066667 
1.303635 -0.142602 0.066667 
1.260195 -0.127091 0.066667 
1.226549 -0.117231 0.066667 
1.184231 -0.108467 0.066667 
1.127766 -0.101676 0.066667 
1.092517 -0.099295 0.066667 
1.051678 -0.097737 0.066667 
1.004563 -0.097111 0.066667 
1.821328 -0.677693 0.066667 
1.807796 -0.653054 0.066667 
1.794879 -0.630376 0.066667 
1.782538 -0.609494 0.066667 
1.759426 -0.572468 0.066667 
1.738141 -0.540666 0.066667 
1.718369 -0.512779 0.066667 
1.690831 -0.475878 0.066667 
1.664788 -0.443138 0.066667 
1.639047 -0.412853 0.066667 
1.612617 -0.383612 0.066667 
1.585308 -0.355172 0.066667 
1.557132 -0.327584 0.066667 
1.528100 -0.300904 0.066667 
1.498217 -0.275220 0.066667 
1.467488 -0.250624 0.066667 
1.435895 -0.227250 0.066667 
1.403340 -0.205396 0.066667 
1.369701 -0.185401 0.066667 
1.334546 -0.167462 0.066667 
1.296197 -0.151214 0.066667 
1.252664 -0.136153 0.066667 
1.219029 -0.126643 0.066667 
1.177111 -0.118007 0.066667 
1.121817 -0.110819 0.066667 
1.087562 -0.107946 0.066667 
1.048052 -0.105649 0.066667 
1.002651 -0.104001 0.066667 
1.818460 -0.682223 0.066667 
1.804770 -0.657532 0.066667 
1.791702 -0.634835 0.066667 
1.779214 -0.613965 0.066667 
1.755822 -0.577032 0.066667 
1.734277 -0.545386 0.066667 
1.714261 -0.517682 0.066667 
1.686385 -0.481044 0.066667 
1.660028 -0.448555 0.066667 
1.633988 -0.418524 0.066667 
1.607263 -0.389550 0.066667 
1.579666 -0.361387 0.066667 
1.551214 -0.334080 0.066667 
1.521921 -0.307679 0.066667 
1.491793 -0.282267 0.066667 
1.460839 -0.257932 0.066667 
1.429042 -0.234808 0.066667 
1.396305 -0.213195 0.066667 
1.362508 -0.193439 0.066667 
1.327219 -0.175753 0.066667 
1.288759 -0.159826 0.066667 
1.245133 -0.145216 0.066667 
1.211509 -0.136055 0.066667 
1.169991 -0.127548 0.066667 
1.115868 -0.119962 0.066667 
1.082606 -0.116597 0.066667 
1.044427 -0.113562 0.066667 
1.000739 -0.110890 0.066667 
1.827064 -0.667163 0.100000 
1.813846 -0.643220 0.100000 
1.801234 -0.621026 0.100000 
1.789187 -0.600445 0.100000 
1.766632 -0.563581 0.100000 
1.745870 -0.531540 0.100000 
1.726585 -0.503234 0.100000 
1.699723 -0.465725 0.100000 
1.674307 -0.432433 0.100000 
1.649166 -0.401615 0.100000 
1.623325 -0.371829 0.100000 
1.596591 -0.342832 0.100000 
1.568968 -0.314684 0.100000 
1.540459 -0.287448 0.100000 
1.511064 -0.261214 0.100000 
1.480785 -0.236074 0.100000 
1.449601 -0.212165 0.100000 
1.417410 -0.189784 0.100000 
1.384087 -0.169270 0.100000 
1.349199 -0.150808 0.100000 
1.311074 -0.133974 0.100000 
1.267726 -0.118193 0.100000 
1.234069 -0.108165 0.100000 
1.191351 -0.099339 0.100000 
1.133715 -0.092703 0.100000 
1.097472 -0.090516 0.100000 
1.055303 -0.089248 0.100000 
1.006475 -0.089022 0.100000 
1.824196 -0.671693 0.100000 
1.810821 -0.647697 0.100000 
1.798056 -0.625485 0.100000 
1.785862 -0.604916 0.100000 
1.763029 -0.568145 0.100000 
1.742006 -0.536260 0.100000 
1.722477 -0.508137 0.100000 
1.695277 -0.470891 0.100000 
1.669547 -0.437850 0.100000 
1.644106 -0.407286 0.100000 
1.617971 -0.377767 0.100000 
1.590949 -0.349048 0.100000 
1.563050 -0.321183 0.100000 
1.534279 -0.294230 0.100000 
1.504641 -0.268273 0.100000 
1.474136 -0.243402 0.100000 
1.442748 -0.219749 0.100000 
1.410375 -0.197619 0.100000 
1.376894 -0.177355 0.100000 
1.341873 -0.159159 0.100000 
1.303635 -0.142649 0.100000 
1.260195 -0.127295 0.100000 
1.226549 -0.117586 0.100000 
1.184231 -0.108873 0.100000 
1.127766 -0.101873 0.100000 
1.092517 -0.099238 0.100000 
1.051678 -0.097301 0.100000 
1.004563 -0.096149 0.100000 
1.821328 -0.676223 0.100000 
1.807796 -0.652175 0.100000 
1.794879 -0.629944 0.100000 
1.782538 -0.609387 0.100000 
1.759426 -0.572709 0.100000 
1.738141 -0.540981 0.100000 
1.718369 -0.513040 0.100000 
1.690831 -0.476057 0.100000 
1.664788 -0.443268 0.100000 
1.639047 -0.412957 0.100000 
1.612617 -0.383705 0.100000 
1.585308 -0.355265 0.100000 
1.557132 -0.327682 0.100000 
1.528100 -0.301012 0.100000 
1.498217 -0.275332 0.100000 
1.467488 -0.250729 0.100000 
1.435895 -0.227333 0.100000 
1.403340 -0.205453 0.100000 
1.369701 -0.185441 0.100000 
1.334546 -0.167511 0.100000 
1.296197 -0.151323 0.100000 
1.252664 -0.136397 0.100000 
1.219029 -0.127007 0.100000 
1.177111 -0.118408 0.100000 
1.121817 -0.111042 0.100000 
1.087562 -0.107961 0.100000 
1.048052 -0.105354 0.100000 
1.002651 -0.103277 0.100000 
1.818460 -0.680753 0.100000 
1.804770 -0.656652 0.100000 
1.791702 -0.634403 0.100000 
1.779214 -0.613857 0.100000 
1.755822 -0.577273 0.100000 
1.734277 -0.545702 0.100000 
1.714261 -0.517943 0.100000 
1.686385 -0.481223 0.100000 
1.660028 -0.448685 0.100000 
1.633988 -0.418628 0.100000 
1.607263 -0.389643 0.100000 
1.579666 -0.361481 0.100000 
1.551214 -0.334182 0.100000 
1.521921 -0.307794 0.100000 
1.491793 -0.282392 0.100000 
1.460839 -0.258057 0.100000 
1.429042 -0.234917 0.100000 
1.396305 -0.213287 0.100000 
1.362508 -0.193526 0.100000 
1.327219 -0.175863 0.100000 
1.288759 -0.159998 0.100000 
1.245133 -0.145499 0.100000 
1.211509 -0.136428 0.100000 
1.169991 -0.127942 0.100000 
1.115868 -0.120212 0.100000 
1.082606 -0.116683 0.100000 
1.044427 -0.113407 0.100000 
1.000739 -0.110404 0.100000 
