VARIABLES = "CoordinateX", "CoordinateY", "CoordinateZ"
Zone T="FFD_vol0" I=10 J=2 K=2
DATAPACKING=POINT
1.000000 -0.031252 0.000000 
0.973716 0.108167 0.000000 
0.899672 0.201735 0.000000 
0.763006 0.305704 0.000000 
0.615441 0.339463 0.000000 
0.384559 0.339463 0.000000 
0.236994 0.305704 0.000000 
0.100328 0.201735 0.000000 
0.026284 0.108167 0.000000 
0.000000 -0.031252 0.000000 
1.000000 -0.041252 0.000000 
0.962798 0.010284 0.000000 
0.913486 0.052436 0.000000 
0.797974 0.148886 0.000000 
0.643930 0.207942 0.000000 
0.356070 0.207942 0.000000 
0.202026 0.148886 0.000000 
0.086514 0.052436 0.000000 
0.037202 0.010284 0.000000 
0.000000 -0.041252 0.000000 
1.000000 -0.031252 0.100000 
0.973716 0.108167 0.100000 
0.899672 0.201735 0.100000 
0.763006 0.305704 0.100000 
0.615441 0.339463 0.100000 
0.384559 0.339463 0.100000 
0.236994 0.305704 0.100000 
0.100328 0.201735 0.100000 
0.026284 0.108167 0.100000 
0.000000 -0.031252 0.100000 
1.000000 -0.041252 0.100000 
0.962798 0.010284 0.100000 
0.913486 0.052436 0.100000 
0.797974 0.148886 0.100000 
0.643930 0.207942 0.100000 
0.356070 0.207942 0.100000 
0.202026 0.148886 0.100000 
0.086514 0.052436 0.100000 
0.037202 0.010284 0.100000 
0.000000 -0.041252 0.100000 
Zone T="embedding_vol" I=28 J=4 K=4
DATAPACKING=POINT
1.000000 -0.031252 0.000000 
0.990850 0.011909 0.000000 
0.980958 0.048920 0.000000 
0.970376 0.080495 0.000000 
0.947360 0.130184 0.000000 
0.922228 0.166676 0.000000 
0.895405 0.195671 0.000000 
0.852785 0.234161 0.000000 
0.807865 0.267356 0.000000 
0.761190 0.294003 0.000000 
0.712765 0.313282 0.000000 
0.660448 0.326109 0.000000 
0.601555 0.333836 0.000000 
0.534880 0.337587 0.000000 
0.465120 0.337587 0.000000 
0.398445 0.333836 0.000000 
0.339552 0.326109 0.000000 
0.287235 0.313282 0.000000 
0.238810 0.294003 0.000000 
0.192135 0.267356 0.000000 
0.147215 0.234161 0.000000 
0.104595 0.195671 0.000000 
0.077772 0.166676 0.000000 
0.052640 0.130184 0.000000 
0.029624 0.080495 0.000000 
0.019042 0.048920 0.000000 
0.009150 0.011909 0.000000 
0.000000 -0.031252 0.000000 
1.000000 -0.034585 0.000000 
0.989912 -0.000445 0.000000 
0.979586 0.028943 0.000000 
0.969004 0.054151 0.000000 
0.946999 0.094326 0.000000 
0.923753 0.124669 0.000000 
0.899124 0.149772 0.000000 
0.859421 0.184773 0.000000 
0.816683 0.216602 0.000000 
0.771310 0.243553 0.000000 
0.723143 0.264308 0.000000 
0.669776 0.279110 0.000000 
0.608246 0.288591 0.000000 
0.537318 0.293279 0.000000 
0.462682 0.293279 0.000000 
0.391754 0.288591 0.000000 
0.330224 0.279110 0.000000 
0.276857 0.264308 0.000000 
0.228690 0.243553 0.000000 
0.183317 0.216602 0.000000 
0.140579 0.184773 0.000000 
0.100876 0.149772 0.000000 
0.076247 0.124669 0.000000 
0.053001 0.094326 0.000000 
0.030996 0.054151 0.000000 
0.020414 0.028943 0.000000 
0.010088 -0.000445 0.000000 
0.000000 -0.034585 0.000000 
1.000000 -0.037919 0.000000 
0.988975 -0.012799 0.000000 
0.978215 0.008965 0.000000 
0.967632 0.027807 0.000000 
0.946637 0.058468 0.000000 
0.925278 0.082663 0.000000 
0.902843 0.103872 0.000000 
0.866057 0.135384 0.000000 
0.825501 0.165848 0.000000 
0.781431 0.193103 0.000000 
0.733520 0.215334 0.000000 
0.679104 0.232110 0.000000 
0.614937 0.243345 0.000000 
0.539756 0.248970 0.000000 
0.460244 0.248970 0.000000 
0.385063 0.243345 0.000000 
0.320896 0.232110 0.000000 
0.266480 0.215334 0.000000 
0.218569 0.193103 0.000000 
0.174499 0.165848 0.000000 
0.133943 0.135384 0.000000 
0.097157 0.103872 0.000000 
0.074722 0.082663 0.000000 
0.053363 0.058468 0.000000 
0.032368 0.027807 0.000000 
0.021785 0.008965 0.000000 
0.011025 -0.012799 0.000000 
0.000000 -0.037919 0.000000 
1.000000 -0.041252 0.000000 
0.988037 -0.025152 0.000000 
0.976844 -0.011012 0.000000 
0.966259 0.001464 0.000000 
0.946275 0.022610 0.000000 
0.926804 0.040656 0.000000 
0.906562 0.057973 0.000000 
0.872693 0.085996 0.000000 
0.834319 0.115094 0.000000 
0.791552 0.142654 0.000000 
0.743897 0.166360 0.000000 
0.688432 0.185110 0.000000 
0.621627 0.198100 0.000000 
0.542195 0.204662 0.000000 
0.457805 0.204662 0.000000 
0.378373 0.198100 0.000000 
0.311568 0.185110 0.000000 
0.256103 0.166360 0.000000 
0.208448 0.142654 0.000000 
0.165681 0.115094 0.000000 
0.127307 0.085996 0.000000 
0.093438 0.057973 0.000000 
0.073196 0.040656 0.000000 
0.053725 0.022610 0.000000 
0.033741 0.001464 0.000000 
0.023156 -0.011012 0.000000 
0.011963 -0.025152 0.000000 
0.000000 -0.041252 0.000000 
1.000000 -0.031252 0.033333 
0.990850 0.011909 0.033333 
0.980958 0.048920 0.033333 
0.970376 0.080495 0.033333 
0.947360 0.130184 0.033333 
0.922228 0.166676 0.033333 
0.895405 0.195671 0.033333 
0.852785 0.234161 0.033333 
0.807865 0.267356 0.033333 
0.761190 0.294003 0.033333 
0.712765 0.313282 0.033333 
0.660448 0.326109 0.033333 
0.601555 0.333836 0.033333 
0.534880 0.337587 0.033333 
0.465120 0.337587 0.033333 
0.398445 0.333836 0.033333 
0.339552 0.326109 0.033333 
0.287235 0.313282 0.033333 
0.238810 0.294003 0.033333 
0.192135 0.267356 0.033333 
0.147215 0.234161 0.033333 
0.104595 0.195671 0.033333 
0.077772 0.166676 0.033333 
0.052640 0.130184 0.033333 
0.029624 0.080495 0.033333 
0.019042 0.048920 0.033333 
0.009150 0.011909 0.033333 
0.000000 -0.031252 0.033333 
1.000000 -0.034585 0.033333 
0.989912 -0.000445 0.033333 
0.979586 0.028943 0.033333 
0.969004 0.054151 0.033333 
0.946999 0.094326 0.033333 
0.923753 0.124669 0.033333 
0.899124 0.149772 0.033333 
0.859421 0.184773 0.033333 
0.816683 0.216602 0.033333 
0.771310 0.243553 0.033333 
0.723143 0.264308 0.033333 
0.669776 0.279110 0.033333 
0.608246 0.288591 0.033333 
0.537318 0.293279 0.033333 
0.462682 0.293279 0.033333 
0.391754 0.288591 0.033333 
0.330224 0.279110 0.033333 
0.276857 0.264308 0.033333 
0.228690 0.243553 0.033333 
0.183317 0.216602 0.033333 
0.140579 0.184773 0.033333 
0.100876 0.149772 0.033333 
0.076247 0.124669 0.033333 
0.053001 0.094326 0.033333 
0.030996 0.054151 0.033333 
0.020414 0.028943 0.033333 
0.010088 -0.000445 0.033333 
0.000000 -0.034585 0.033333 
1.000000 -0.037919 0.033333 
0.988975 -0.012799 0.033333 
0.978215 0.008965 0.033333 
0.967632 0.027807 0.033333 
0.946637 0.058468 0.033333 
0.925278 0.082663 0.033333 
0.902843 0.103872 0.033333 
0.866057 0.135384 0.033333 
0.825501 0.165848 0.033333 
0.781431 0.193103 0.033333 
0.733520 0.215334 0.033333 
0.679104 0.232110 0.033333 
0.614937 0.243345 0.033333 
0.539756 0.248970 0.033333 
0.460244 0.248970 0.033333 
0.385063 0.243345 0.033333 
0.320896 0.232110 0.033333 
0.266480 0.215334 0.033333 
0.218569 0.193103 0.033333 
0.174499 0.165848 0.033333 
0.133943 0.135384 0.033333 
0.097157 0.103872 0.033333 
0.074722 0.082663 0.033333 
0.053363 0.058468 0.033333 
0.032368 0.027807 0.033333 
0.021785 0.008965 0.033333 
0.011025 -0.012799 0.033333 
0.000000 -0.037919 0.033333 
1.000000 -0.041252 0.033333 
0.988037 -0.025152 0.033333 
0.976844 -0.011012 0.033333 
0.966259 0.001464 0.033333 
0.946275 0.022610 0.033333 
0.926804 0.040656 0.033333 
0.906562 0.057973 0.033333 
0.872693 0.085996 0.033333 
0.834319 0.115094 0.033333 
0.791552 0.142654 0.033333 
0.743897 0.166360 0.033333 
0.688432 0.185110 0.033333 
0.621627 0.198100 0.033333 
0.542195 0.204662 0.033333 
0.457805 0.204662 0.033333 
0.378373 0.198100 0.033333 
0.311568 0.185110 0.033333 
0.256103 0.166360 0.033333 
0.208448 0.142654 0.033333 
0.165681 0.115094 0.033333 
0.127307 0.085996 0.033333 
0.093438 0.057973 0.033333 
0.073196 0.040656 0.033333 
0.053725 0.022610 0.033333 
0.033741 0.001464 0.033333 
0.023156 -0.011012 0.033333 
0.011963 -0.025152 0.033333 
0.000000 -0.041252 0.033333 
1.000000 -0.031252 0.066667 
0.990850 0.011909 0.066667 
0.980958 0.048920 0.066667 
0.970376 0.080495 0.066667 
0.947360 0.130184 0.066667 
0.922228 0.166676 0.066667 
0.895405 0.195671 0.066667 
0.852785 0.234161 0.066667 
0.807865 0.267356 0.066667 
0.761190 0.294003 0.066667 
0.712765 0.313282 0.066667 
0.660448 0.326109 0.066667 
0.601555 0.333836 0.066667 
0.534880 0.337587 0.066667 
0.465120 0.337587 0.066667 
0.398445 0.333836 0.066667 
0.339552 0.326109 0.066667 
0.287235 0.313282 0.066667 
0.238810 0.294003 0.066667 
0.192135 0.267356 0.066667 
0.147215 0.234161 0.066667 
0.104595 0.195671 0.066667 
0.077772 0.166676 0.066667 
0.052640 0.130184 0.066667 
0.029624 0.080495 0.066667 
0.019042 0.048920 0.066667 
0.009150 0.011909 0.066667 
0.000000 -0.031252 0.066667 
1.000000 -0.034585 0.066667 
0.989912 -0.000445 0.066667 
0.979586 0.028943 0.066667 
0.969004 0.054151 0.066667 
0.946999 0.094326 0.066667 
0.923753 0.124669 0.066667 
0.899124 0.149772 0.066667 
0.859421 0.184773 0.066667 
0.816683 0.216602 0.066667 
0.771310 0.243553 0.066667 
0.723143 0.264308 0.066667 
0.669776 0.279110 0.066667 
0.608246 0.288591 0.066667 
0.537318 0.293279 0.066667 
0.462682 0.293279 0.066667 
0.391754 0.288591 0.066667 
0.330224 0.279110 0.066667 
0.276857 0.264308 0.066667 
0.228690 0.243553 0.066667 
0.183317 0.216602 0.066667 
0.140579 0.184773 0.066667 
0.100876 0.149772 0.066667 
0.076247 0.124669 0.066667 
0.053001 0.094326 0.066667 
0.030996 0.054151 0.066667 
0.020414 0.028943 0.066667 
0.010088 -0.000445 0.066667 
0.000000 -0.034585 0.066667 
1.000000 -0.037919 0.066667 
0.988975 -0.012799 0.066667 
0.978215 0.008965 0.066667 
0.967632 0.027807 0.066667 
0.946637 0.058468 0.066667 
0.925278 0.082663 0.066667 
0.902843 0.103872 0.066667 
0.866057 0.135384 0.066667 
0.825501 0.165848 0.066667 
0.781431 0.193103 0.066667 
0.733520 0.215334 0.066667 
0.679104 0.232110 0.066667 
0.614937 0.243345 0.066667 
0.539756 0.248970 0.066667 
0.460244 0.248970 0.066667 
0.385063 0.243345 0.066667 
0.320896 0.232110 0.066667 
0.266480 0.215334 0.066667 
0.218569 0.193103 0.066667 
0.174499 0.165848 0.066667 
0.133943 0.135384 0.066667 
0.097157 0.103872 0.066667 
0.074722 0.082663 0.066667 
0.053363 0.058468 0.066667 
0.032368 0.027807 0.066667 
0.021785 0.008965 0.066667 
0.011025 -0.012799 0.066667 
0.000000 -0.037919 0.066667 
1.000000 -0.041252 0.066667 
0.988037 -0.025152 0.066667 
0.976844 -0.011012 0.066667 
0.966259 0.001464 0.066667 
0.946275 0.022610 0.066667 
0.926804 0.040656 0.066667 
0.906562 0.057973 0.066667 
0.872693 0.085996 0.066667 
0.834319 0.115094 0.066667 
0.791552 0.142654 0.066667 
0.743897 0.166360 0.066667 
0.688432 0.185110 0.066667 
0.621627 0.198100 0.066667 
0.542195 0.204662 0.066667 
0.457805 0.204662 0.066667 
0.378373 0.198100 0.066667 
0.311568 0.185110 0.066667 
0.256103 0.166360 0.066667 
0.208448 0.142654 0.066667 
0.165681 0.115094 0.066667 
0.127307 0.085996 0.066667 
0.093438 0.057973 0.066667 
0.073196 0.040656 0.066667 
0.053725 0.022610 0.066667 
0.033741 0.001464 0.066667 
0.023156 -0.011012 0.066667 
0.011963 -0.025152 0.066667 
0.000000 -0.041252 0.066667 
1.000000 -0.031252 0.100000 
0.990850 0.011909 0.100000 
0.980958 0.048920 0.100000 
0.970376 0.080495 0.100000 
0.947360 0.130184 0.100000 
0.922228 0.166676 0.100000 
0.895405 0.195671 0.100000 
0.852785 0.234161 0.100000 
0.807865 0.267356 0.100000 
0.761190 0.294003 0.100000 
0.712765 0.313282 0.100000 
0.660448 0.326109 0.100000 
0.601555 0.333836 0.100000 
0.534880 0.337587 0.100000 
0.465120 0.337587 0.100000 
0.398445 0.333836 0.100000 
0.339552 0.326109 0.100000 
0.287235 0.313282 0.100000 
0.238810 0.294003 0.100000 
0.192135 0.267356 0.100000 
0.147215 0.234161 0.100000 
0.104595 0.195671 0.100000 
0.077772 0.166676 0.100000 
0.052640 0.130184 0.100000 
0.029624 0.080495 0.100000 
0.019042 0.048920 0.100000 
0.009150 0.011909 0.100000 
0.000000 -0.031252 0.100000 
1.000000 -0.034585 0.100000 
0.989912 -0.000445 0.100000 
0.979586 0.028943 0.100000 
0.969004 0.054151 0.100000 
0.946999 0.094326 0.100000 
0.923753 0.124669 0.100000 
0.899124 0.149772 0.100000 
0.859421 0.184773 0.100000 
0.816683 0.216602 0.100000 
0.771310 0.243553 0.100000 
0.723143 0.264308 0.100000 
0.669776 0.279110 0.100000 
0.608246 0.288591 0.100000 
0.537318 0.293279 0.100000 
0.462682 0.293279 0.100000 
0.391754 0.288591 0.100000 
0.330224 0.279110 0.100000 
0.276857 0.264308 0.100000 
0.228690 0.243553 0.100000 
0.183317 0.216602 0.100000 
0.140579 0.184773 0.100000 
0.100876 0.149772 0.100000 
0.076247 0.124669 0.100000 
0.053001 0.094326 0.100000 
0.030996 0.054151 0.100000 
0.020414 0.028943 0.100000 
0.010088 -0.000445 0.100000 
0.000000 -0.034585 0.100000 
1.000000 -0.037919 0.100000 
0.988975 -0.012799 0.100000 
0.978215 0.008965 0.100000 
0.967632 0.027807 0.100000 
0.946637 0.058468 0.100000 
0.925278 0.082663 0.100000 
0.902843 0.103872 0.100000 
0.866057 0.135384 0.100000 
0.825501 0.165848 0.100000 
0.781431 0.193103 0.100000 
0.733520 0.215334 0.100000 
0.679104 0.232110 0.100000 
0.614937 0.243345 0.100000 
0.539756 0.248970 0.100000 
0.460244 0.248970 0.100000 
0.385063 0.243345 0.100000 
0.320896 0.232110 0.100000 
0.266480 0.215334 0.100000 
0.218569 0.193103 0.100000 
0.174499 0.165848 0.100000 
0.133943 0.135384 0.100000 
0.097157 0.103872 0.100000 
0.074722 0.082663 0.100000 
0.053363 0.058468 0.100000 
0.032368 0.027807 0.100000 
0.021785 0.008965 0.100000 
0.011025 -0.012799 0.100000 
0.000000 -0.037919 0.100000 
1.000000 -0.041252 0.100000 
0.988037 -0.025152 0.100000 
0.976844 -0.011012 0.100000 
0.966259 0.001464 0.100000 
0.946275 0.022610 0.100000 
0.926804 0.040656 0.100000 
0.906562 0.057973 0.100000 
0.872693 0.085996 0.100000 
0.834319 0.115094 0.100000 
0.791552 0.142654 0.100000 
0.743897 0.166360 0.100000 
0.688432 0.185110 0.100000 
0.621627 0.198100 0.100000 
0.542195 0.204662 0.100000 
0.457805 0.204662 0.100000 
0.378373 0.198100 0.100000 
0.311568 0.185110 0.100000 
0.256103 0.166360 0.100000 
0.208448 0.142654 0.100000 
0.165681 0.115094 0.100000 
0.127307 0.085996 0.100000 
0.093438 0.057973 0.100000 
0.073196 0.040656 0.100000 
0.053725 0.022610 0.100000 
0.033741 0.001464 0.100000 
0.023156 -0.011012 0.100000 
0.011963 -0.025152 0.100000 
0.000000 -0.041252 0.100000 
Zone T="FFD_vol1" I=10 J=2 K=2
DATAPACKING=POINT
1.823684 -0.802284 0.000000 
1.783628 -0.659790 0.000000 
1.720401 -0.564978 0.000000 
1.648804 -0.472077 0.000000 
1.569103 -0.383315 0.000000 
1.481345 -0.320175 0.000000 
1.385638 -0.237117 0.000000 
1.278497 -0.181493 0.000000 
1.163801 -0.144213 0.000000 
1.006525 -0.182364 0.000000 
1.815008 -0.814521 0.000000 
1.773507 -0.672862 0.000000 
1.707831 -0.579688 0.000000 
1.633515 -0.488933 0.000000 
1.551166 -0.402651 0.000000 
1.461176 -0.342012 0.000000 
1.363804 -0.261297 0.000000 
1.255678 -0.207792 0.000000 
1.140611 -0.171935 0.000000 
1.000742 -0.190521 0.000000 
1.823684 -0.802284 0.100000 
1.783628 -0.659790 0.100000 
1.720401 -0.564978 0.100000 
1.648804 -0.472077 0.100000 
1.569103 -0.383315 0.100000 
1.481345 -0.320175 0.100000 
1.385638 -0.237117 0.100000 
1.278497 -0.181493 0.100000 
1.163801 -0.144213 0.100000 
1.006525 -0.182364 0.100000 
1.815008 -0.814521 0.100000 
1.773507 -0.672862 0.100000 
1.707831 -0.579688 0.100000 
1.633515 -0.488933 0.100000 
1.551166 -0.402651 0.100000 
1.461176 -0.342012 0.100000 
1.363804 -0.261297 0.100000 
1.255678 -0.207792 0.100000 
1.140611 -0.171935 0.100000 
1.000742 -0.190521 0.100000 
Zone T="embedding_vol" I=28 J=4 K=4
DATAPACKING=POINT
1.823684 -0.802284 0.000000 
1.810638 -0.758189 0.000000 
1.798180 -0.720422 0.000000 
1.786273 -0.688268 0.000000 
1.763958 -0.637943 0.000000 
1.743392 -0.601493 0.000000 
1.724275 -0.573197 0.000000 
1.697633 -0.536472 0.000000 
1.672413 -0.503553 0.000000 
1.647454 -0.472766 0.000000 
1.621787 -0.442852 0.000000 
1.595222 -0.414193 0.000000 
1.567760 -0.387585 0.000000 
1.539404 -0.363410 0.000000 
1.510156 -0.340396 0.000000 
1.480020 -0.316855 0.000000 
1.448980 -0.291675 0.000000 
1.416927 -0.266035 0.000000 
1.383732 -0.241690 0.000000 
1.348959 -0.219929 0.000000 
1.310935 -0.200189 0.000000 
1.267680 -0.181444 0.000000 
1.234079 -0.169666 0.000000 
1.191405 -0.161617 0.000000 
1.133792 -0.161038 0.000000 
1.097549 -0.164720 0.000000 
1.055372 -0.171672 0.000000 
1.006525 -0.182364 0.000000 
1.820792 -0.806363 0.000000 
1.807588 -0.762360 0.000000 
1.794978 -0.724685 0.000000 
1.782923 -0.692624 0.000000 
1.760327 -0.642479 0.000000 
1.739500 -0.606206 0.000000 
1.720138 -0.578084 0.000000 
1.693157 -0.541609 0.000000 
1.667622 -0.508938 0.000000 
1.642361 -0.478404 0.000000 
1.616399 -0.448752 0.000000 
1.589545 -0.420364 0.000000 
1.561805 -0.394032 0.000000 
1.533185 -0.370134 0.000000 
1.503691 -0.347395 0.000000 
1.473329 -0.324126 0.000000 
1.442082 -0.299211 0.000000 
1.409846 -0.273831 0.000000 
1.376492 -0.249737 0.000000 
1.341584 -0.228221 0.000000 
1.303447 -0.208720 0.000000 
1.260097 -0.190211 0.000000 
1.226507 -0.178517 0.000000 
1.184235 -0.170106 0.000000 
1.127800 -0.168276 0.000000 
1.092558 -0.170859 0.000000 
1.051719 -0.176324 0.000000 
1.004597 -0.185083 0.000000 
1.817900 -0.810442 0.000000 
1.804539 -0.766532 0.000000 
1.791776 -0.728949 0.000000 
1.779573 -0.696979 0.000000 
1.756697 -0.647015 0.000000 
1.735608 -0.610919 0.000000 
1.716001 -0.582970 0.000000 
1.688681 -0.546747 0.000000 
1.662831 -0.514323 0.000000 
1.637269 -0.484041 0.000000 
1.611010 -0.454652 0.000000 
1.583867 -0.426535 0.000000 
1.555849 -0.400478 0.000000 
1.526966 -0.376857 0.000000 
1.497226 -0.354394 0.000000 
1.466637 -0.331396 0.000000 
1.435185 -0.306748 0.000000 
1.402765 -0.281626 0.000000 
1.369252 -0.257785 0.000000 
1.334208 -0.236512 0.000000 
1.295958 -0.217251 0.000000 
1.252515 -0.198978 0.000000 
1.218935 -0.187368 0.000000 
1.177065 -0.178596 0.000000 
1.121809 -0.175514 0.000000 
1.087567 -0.176999 0.000000 
1.048066 -0.180976 0.000000 
1.002670 -0.187802 0.000000 
1.815008 -0.814521 0.000000 
1.801489 -0.770703 0.000000 
1.788573 -0.733213 0.000000 
1.776223 -0.701334 0.000000 
1.753067 -0.651551 0.000000 
1.731716 -0.615632 0.000000 
1.711864 -0.587856 0.000000 
1.684205 -0.551884 0.000000 
1.658040 -0.519708 0.000000 
1.632176 -0.489679 0.000000 
1.605622 -0.460552 0.000000 
1.578189 -0.432706 0.000000 
1.549893 -0.406925 0.000000 
1.520747 -0.383581 0.000000 
1.490761 -0.361392 0.000000 
1.459946 -0.338666 0.000000 
1.428288 -0.314284 0.000000 
1.395685 -0.289422 0.000000 
1.362011 -0.265832 0.000000 
1.326833 -0.244804 0.000000 
1.288470 -0.225781 0.000000 
1.244932 -0.207746 0.000000 
1.211363 -0.196219 0.000000 
1.169896 -0.187085 0.000000 
1.115817 -0.182753 0.000000 
1.082575 -0.183139 0.000000 
1.044413 -0.185628 0.000000 
1.000742 -0.190521 0.000000 
1.823684 -0.802284 0.033333 
1.810638 -0.758189 0.033333 
1.798180 -0.720422 0.033333 
1.786273 -0.688268 0.033333 
1.763958 -0.637943 0.033333 
1.743392 -0.601493 0.033333 
1.724275 -0.573197 0.033333 
1.697633 -0.536472 0.033333 
1.672413 -0.503553 0.033333 
1.647454 -0.472766 0.033333 
1.621787 -0.442852 0.033333 
1.595222 -0.414193 0.033333 
1.567760 -0.387585 0.033333 
1.539404 -0.363410 0.033333 
1.510156 -0.340396 0.033333 
1.480020 -0.316855 0.033333 
1.448980 -0.291675 0.033333 
1.416927 -0.266035 0.033333 
1.383732 -0.241690 0.033333 
1.348959 -0.219929 0.033333 
1.310935 -0.200189 0.033333 
1.267680 -0.181444 0.033333 
1.234079 -0.169666 0.033333 
1.191405 -0.161617 0.033333 
1.133792 -0.161038 0.033333 
1.097549 -0.164720 0.033333 
1.055372 -0.171672 0.033333 
1.006525 -0.182364 0.033333 
1.820792 -0.806363 0.033333 
1.807588 -0.762360 0.033333 
1.794978 -0.724685 0.033333 
1.782923 -0.692624 0.033333 
1.760327 -0.642479 0.033333 
1.739500 -0.606206 0.033333 
1.720138 -0.578084 0.033333 
1.693157 -0.541609 0.033333 
1.667622 -0.508938 0.033333 
1.642361 -0.478404 0.033333 
1.616399 -0.448752 0.033333 
1.589545 -0.420364 0.033333 
1.561805 -0.394032 0.033333 
1.533185 -0.370134 0.033333 
1.503691 -0.347395 0.033333 
1.473329 -0.324126 0.033333 
1.442082 -0.299211 0.033333 
1.409846 -0.273831 0.033333 
1.376492 -0.249737 0.033333 
1.341584 -0.228221 0.033333 
1.303447 -0.208720 0.033333 
1.260097 -0.190211 0.033333 
1.226507 -0.178517 0.033333 
1.184235 -0.170106 0.033333 
1.127800 -0.168276 0.033333 
1.092558 -0.170859 0.033333 
1.051719 -0.176324 0.033333 
1.004597 -0.185083 0.033333 
1.817900 -0.810442 0.033333 
1.804539 -0.766532 0.033333 
1.791776 -0.728949 0.033333 
1.779573 -0.696979 0.033333 
1.756697 -0.647015 0.033333 
1.735608 -0.610919 0.033333 
1.716001 -0.582970 0.033333 
1.688681 -0.546747 0.033333 
1.662831 -0.514323 0.033333 
1.637269 -0.484041 0.033333 
1.611010 -0.454652 0.033333 
1.583867 -0.426535 0.033333 
1.555849 -0.400478 0.033333 
1.526966 -0.376857 0.033333 
1.497226 -0.354394 0.033333 
1.466637 -0.331396 0.033333 
1.435185 -0.306748 0.033333 
1.402765 -0.281626 0.033333 
1.369252 -0.257785 0.033333 
1.334208 -0.236512 0.033333 
1.295958 -0.217251 0.033333 
1.252515 -0.198978 0.033333 
1.218935 -0.187368 0.033333 
1.177065 -0.178596 0.033333 
1.121809 -0.175514 0.033333 
1.087567 -0.176999 0.033333 
1.048066 -0.180976 0.033333 
1.002670 -0.187802 0.033333 
1.815008 -0.814521 0.033333 
1.801489 -0.770703 0.033333 
1.788573 -0.733213 0.033333 
1.776223 -0.701334 0.033333 
1.753067 -0.651551 0.033333 
1.731716 -0.615632 0.033333 
1.711864 -0.587856 0.033333 
1.684205 -0.551884 0.033333 
1.658040 -0.519708 0.033333 
1.632176 -0.489679 0.033333 
1.605622 -0.460552 0.033333 
1.578189 -0.432706 0.033333 
1.549893 -0.406925 0.033333 
1.520747 -0.383581 0.033333 
1.490761 -0.361392 0.033333 
1.459946 -0.338666 0.033333 
1.428288 -0.314284 0.033333 
1.395685 -0.289422 0.033333 
1.362011 -0.265832 0.033333 
1.326833 -0.244804 0.033333 
1.288470 -0.225781 0.033333 
1.244932 -0.207746 0.033333 
1.211363 -0.196219 0.033333 
1.169896 -0.187085 0.033333 
1.115817 -0.182753 0.033333 
1.082575 -0.183139 0.033333 
1.044413 -0.185628 0.033333 
1.000742 -0.190521 0.033333 
1.823684 -0.802284 0.066667 
1.810638 -0.758189 0.066667 
1.798180 -0.720422 0.066667 
1.786273 -0.688268 0.066667 
1.763958 -0.637943 0.066667 
1.743392 -0.601493 0.066667 
1.724275 -0.573197 0.066667 
1.697633 -0.536472 0.066667 
1.672413 -0.503553 0.066667 
1.647454 -0.472766 0.066667 
1.621787 -0.442852 0.066667 
1.595222 -0.414193 0.066667 
1.567760 -0.387585 0.066667 
1.539404 -0.363410 0.066667 
1.510156 -0.340396 0.066667 
1.480020 -0.316855 0.066667 
1.448980 -0.291675 0.066667 
1.416927 -0.266035 0.066667 
1.383732 -0.241690 0.066667 
1.348959 -0.219929 0.066667 
1.310935 -0.200189 0.066667 
1.267680 -0.181444 0.066667 
1.234079 -0.169666 0.066667 
1.191405 -0.161617 0.066667 
1.133792 -0.161038 0.066667 
1.097549 -0.164720 0.066667 
1.055372 -0.171672 0.066667 
1.006525 -0.182364 0.066667 
1.820792 -0.806363 0.066667 
1.807588 -0.762360 0.066667 
1.794978 -0.724685 0.066667 
1.782923 -0.692624 0.066667 
1.760327 -0.642479 0.066667 
1.739500 -0.606206 0.066667 
1.720138 -0.578084 0.066667 
1.693157 -0.541609 0.066667 
1.667622 -0.508938 0.066667 
1.642361 -0.478404 0.066667 
1.616399 -0.448752 0.066667 
1.589545 -0.420364 0.066667 
1.561805 -0.394032 0.066667 
1.533185 -0.370134 0.066667 
1.503691 -0.347395 0.066667 
1.473329 -0.324126 0.066667 
1.442082 -0.299211 0.066667 
1.409846 -0.273831 0.066667 
1.376492 -0.249737 0.066667 
1.341584 -0.228221 0.066667 
1.303447 -0.208720 0.066667 
1.260097 -0.190211 0.066667 
1.226507 -0.178517 0.066667 
1.184235 -0.170106 0.066667 
1.127800 -0.168276 0.066667 
1.092558 -0.170859 0.066667 
1.051719 -0.176324 0.066667 
1.004597 -0.185083 0.066667 
1.817900 -0.810442 0.066667 
1.804539 -0.766532 0.066667 
1.791776 -0.728949 0.066667 
1.779573 -0.696979 0.066667 
1.756697 -0.647015 0.066667 
1.735608 -0.610919 0.066667 
1.716001 -0.582970 0.066667 
1.688681 -0.546747 0.066667 
1.662831 -0.514323 0.066667 
1.637269 -0.484041 0.066667 
1.611010 -0.454652 0.066667 
1.583867 -0.426535 0.066667 
1.555849 -0.400478 0.066667 
1.526966 -0.376857 0.066667 
1.497226 -0.354394 0.066667 
1.466637 -0.331396 0.066667 
1.435185 -0.306748 0.066667 
1.402765 -0.281626 0.066667 
1.369252 -0.257785 0.066667 
1.334208 -0.236512 0.066667 
1.295958 -0.217251 0.066667 
1.252515 -0.198978 0.066667 
1.218935 -0.187368 0.066667 
1.177065 -0.178596 0.066667 
1.121809 -0.175514 0.066667 
1.087567 -0.176999 0.066667 
1.048066 -0.180976 0.066667 
1.002670 -0.187802 0.066667 
1.815008 -0.814521 0.066667 
1.801489 -0.770703 0.066667 
1.788573 -0.733213 0.066667 
1.776223 -0.701334 0.066667 
1.753067 -0.651551 0.066667 
1.731716 -0.615632 0.066667 
1.711864 -0.587856 0.066667 
1.684205 -0.551884 0.066667 
1.658040 -0.519708 0.066667 
1.632176 -0.489679 0.066667 
1.605622 -0.460552 0.066667 
1.578189 -0.432706 0.066667 
1.549893 -0.406925 0.066667 
1.520747 -0.383581 0.066667 
1.490761 -0.361392 0.066667 
1.459946 -0.338666 0.066667 
1.428288 -0.314284 0.066667 
1.395685 -0.289422 0.066667 
1.362011 -0.265832 0.066667 
1.326833 -0.244804 0.066667 
1.288470 -0.225781 0.066667 
1.244932 -0.207746 0.066667 
1.211363 -0.196219 0.066667 
1.169896 -0.187085 0.066667 
1.115817 -0.182753 0.066667 
1.082575 -0.183139 0.066667 
1.044413 -0.185628 0.066667 
1.000742 -0.190521 0.066667 
1.823684 -0.802284 0.100000 
1.810638 -0.758189 0.100000 
1.798180 -0.720422 0.100000 
1.786273 -0.688268 0.100000 
1.763958 -0.637943 0.100000 
1.743392 -0.601493 0.100000 
1.724275 -0.573197 0.100000 
1.697633 -0.536472 0.100000 
1.672413 -0.503553 0.100000 
1.647454 -0.472766 0.100000 
1.621787 -0.442852 0.100000 
1.595222 -0.414193 0.100000 
1.567760 -0.387585 0.100000 
1.539404 -0.363410 0.100000 
1.510156 -0.340396 0.100000 
1.480020 -0.316855 0.100000 
1.448980 -0.291675 0.100000 
1.416927 -0.266035 0.100000 
1.383732 -0.241690 0.100000 
1.348959 -0.219929 0.100000 
1.310935 -0.200189 0.100000 
1.267680 -0.181444 0.100000 
1.234079 -0.169666 0.100000 
1.191405 -0.161617 0.100000 
1.133792 -0.161038 0.100000 
1.097549 -0.164720 0.100000 
1.055372 -0.171672 0.100000 
1.006525 -0.182364 0.100000 
1.820792 -0.806363 0.100000 
1.807588 -0.762360 0.100000 
1.794978 -0.724685 0.100000 
1.782923 -0.692624 0.100000 
1.760327 -0.642479 0.100000 
1.739500 -0.606206 0.100000 
1.720138 -0.578084 0.100000 
1.693157 -0.541609 0.100000 
1.667622 -0.508938 0.100000 
1.642361 -0.478404 0.100000 
1.616399 -0.448752 0.100000 
1.589545 -0.420364 0.100000 
1.561805 -0.394032 0.100000 
1.533185 -0.370134 0.100000 
1.503691 -0.347395 0.100000 
1.473329 -0.324126 0.100000 
1.442082 -0.299211 0.100000 
1.409846 -0.273831 0.100000 
1.376492 -0.249737 0.100000 
1.341584 -0.228221 0.100000 
1.303447 -0.208720 0.100000 
1.260097 -0.190211 0.100000 
1.226507 -0.178517 0.100000 
1.184235 -0.170106 0.100000 
1.127800 -0.168276 0.100000 
1.092558 -0.170859 0.100000 
1.051719 -0.176324 0.100000 
1.004597 -0.185083 0.100000 
1.817900 -0.810442 0.100000 
1.804539 -0.766532 0.100000 
1.791776 -0.728949 0.100000 
1.779573 -0.696979 0.100000 
1.756697 -0.647015 0.100000 
1.735608 -0.610919 0.100000 
1.716001 -0.582970 0.100000 
1.688681 -0.546747 0.100000 
1.662831 -0.514323 0.100000 
1.637269 -0.484041 0.100000 
1.611010 -0.454652 0.100000 
1.583867 -0.426535 0.100000 
1.555849 -0.400478 0.100000 
1.526966 -0.376857 0.100000 
1.497226 -0.354394 0.100000 
1.466637 -0.331396 0.100000 
1.435185 -0.306748 0.100000 
1.402765 -0.281626 0.100000 
1.369252 -0.257785 0.100000 
1.334208 -0.236512 0.100000 
1.295958 -0.217251 0.100000 
1.252515 -0.198978 0.100000 
1.218935 -0.187368 0.100000 
1.177065 -0.178596 0.100000 
1.121809 -0.175514 0.100000 
1.087567 -0.176999 0.100000 
1.048066 -0.180976 0.100000 
1.002670 -0.187802 0.100000 
1.815008 -0.814521 0.100000 
1.801489 -0.770703 0.100000 
1.788573 -0.733213 0.100000 
1.776223 -0.701334 0.100000 
1.753067 -0.651551 0.100000 
1.731716 -0.615632 0.100000 
1.711864 -0.587856 0.100000 
1.684205 -0.551884 0.100000 
1.658040 -0.519708 0.100000 
1.632176 -0.489679 0.100000 
1.605622 -0.460552 0.100000 
1.578189 -0.432706 0.100000 
1.549893 -0.406925 0.100000 
1.520747 -0.383581 0.100000 
1.490761 -0.361392 0.100000 
1.459946 -0.338666 0.100000 
1.428288 -0.314284 0.100000 
1.395685 -0.289422 0.100000 
1.362011 -0.265832 0.100000 
1.326833 -0.244804 0.100000 
1.288470 -0.225781 0.100000 
1.244932 -0.207746 0.100000 
1.211363 -0.196219 0.100000 
1.169896 -0.187085 0.100000 
1.115817 -0.182753 0.100000 
1.082575 -0.183139 0.100000 
1.044413 -0.185628 0.100000 
1.000742 -0.190521 0.100000 
