VARIABLES = "CoordinateX", "CoordinateY", "CoordinateZ"
Zone T="FFD_vol0" I=10 J=2 K=2
DATAPACKING=POINT
1.000000 -0.056794 0.000000 
0.973716 0.114373 0.000000 
0.899672 0.212841 0.000000 
0.763006 0.316698 0.000000 
0.615441 0.345388 0.000000 
0.384559 0.345388 0.000000 
0.236994 0.316698 0.000000 
0.100328 0.212841 0.000000 
0.026284 0.114373 0.000000 
0.000000 -0.056794 0.000000 
1.000000 -0.066794 0.000000 
0.962798 0.016489 0.000000 
0.913486 0.063541 0.000000 
0.797974 0.159880 0.000000 
0.643930 0.213867 0.000000 
0.356070 0.213867 0.000000 
0.202026 0.159880 0.000000 
0.086514 0.063541 0.000000 
0.037202 0.016489 0.000000 
0.000000 -0.066794 0.000000 
1.000000 -0.056794 0.100000 
0.973716 0.114373 0.100000 
0.899672 0.212841 0.100000 
0.763006 0.316698 0.100000 
0.615441 0.345388 0.100000 
0.384559 0.345388 0.100000 
0.236994 0.316698 0.100000 
0.100328 0.212841 0.100000 
0.026284 0.114373 0.100000 
0.000000 -0.056794 0.100000 
1.000000 -0.066794 0.100000 
0.962798 0.016489 0.100000 
0.913486 0.063541 0.100000 
0.797974 0.159880 0.100000 
0.643930 0.213867 0.100000 
0.356070 0.213867 0.100000 
0.202026 0.159880 0.100000 
0.086514 0.063541 0.100000 
0.037202 0.016489 0.100000 
0.000000 -0.066794 0.100000 
Zone T="embedding_vol" I=28 J=4 K=4
DATAPACKING=POINT
1.000000 -0.056794 0.000000 
0.990850 -0.004097 0.000000 
0.980958 0.040511 0.000000 
0.970376 0.077974 0.000000 
0.947360 0.135238 0.000000 
0.922228 0.175242 0.000000 
0.895405 0.205533 0.000000 
0.852785 0.244831 0.000000 
0.807865 0.278096 0.000000 
0.761190 0.304170 0.000000 
0.712765 0.322372 0.000000 
0.660448 0.333944 0.000000 
0.601555 0.340606 0.000000 
0.534880 0.343794 0.000000 
0.465120 0.343794 0.000000 
0.398445 0.340606 0.000000 
0.339552 0.333944 0.000000 
0.287235 0.322372 0.000000 
0.238810 0.304170 0.000000 
0.192135 0.278096 0.000000 
0.147215 0.244831 0.000000 
0.104595 0.205533 0.000000 
0.077772 0.175242 0.000000 
0.052640 0.135238 0.000000 
0.029624 0.077974 0.000000 
0.019042 0.040511 0.000000 
0.009150 -0.004097 0.000000 
0.000000 -0.056794 0.000000 
1.000000 -0.060127 0.000000 
0.989912 -0.016451 0.000000 
0.979586 0.020533 0.000000 
0.969004 0.051630 0.000000 
0.946999 0.099380 0.000000 
0.923753 0.133235 0.000000 
0.899124 0.159634 0.000000 
0.859421 0.195442 0.000000 
0.816683 0.227342 0.000000 
0.771310 0.253721 0.000000 
0.723143 0.273399 0.000000 
0.669776 0.286944 0.000000 
0.608246 0.295361 0.000000 
0.537318 0.299485 0.000000 
0.462682 0.299485 0.000000 
0.391754 0.295361 0.000000 
0.330224 0.286944 0.000000 
0.276857 0.273399 0.000000 
0.228690 0.253721 0.000000 
0.183317 0.227342 0.000000 
0.140579 0.195442 0.000000 
0.100876 0.159634 0.000000 
0.076247 0.133235 0.000000 
0.053001 0.099380 0.000000 
0.030996 0.051630 0.000000 
0.020414 0.020533 0.000000 
0.010088 -0.016451 0.000000 
0.000000 -0.060127 0.000000 
1.000000 -0.063461 0.000000 
0.988975 -0.028805 0.000000 
0.978215 0.000556 0.000000 
0.967632 0.025286 0.000000 
0.946637 0.063521 0.000000 
0.925278 0.091228 0.000000 
0.902843 0.113734 0.000000 
0.866057 0.146053 0.000000 
0.825501 0.176589 0.000000 
0.781431 0.203271 0.000000 
0.733520 0.224425 0.000000 
0.679104 0.239944 0.000000 
0.614937 0.250115 0.000000 
0.539756 0.255177 0.000000 
0.460244 0.255177 0.000000 
0.385063 0.250115 0.000000 
0.320896 0.239944 0.000000 
0.266480 0.224425 0.000000 
0.218569 0.203271 0.000000 
0.174499 0.176589 0.000000 
0.133943 0.146053 0.000000 
0.097157 0.113734 0.000000 
0.074722 0.091228 0.000000 
0.053363 0.063521 0.000000 
0.032368 0.025286 0.000000 
0.021785 0.000556 0.000000 
0.011025 -0.028805 0.000000 
0.000000 -0.063461 0.000000 
1.000000 -0.066794 0.000000 
0.988037 -0.041158 0.000000 
0.976844 -0.019422 0.000000 
0.966259 -0.001058 0.000000 
0.946275 0.027663 0.000000 
0.926804 0.049222 0.000000 
0.906562 0.067835 0.000000 
0.872693 0.096665 0.000000 
0.834319 0.125835 0.000000 
0.791552 0.152821 0.000000 
0.743897 0.175451 0.000000 
0.688432 0.192944 0.000000 
0.621627 0.204870 0.000000 
0.542195 0.210868 0.000000 
0.457805 0.210868 0.000000 
0.378373 0.204870 0.000000 
0.311568 0.192944 0.000000 
0.256103 0.175451 0.000000 
0.208448 0.152821 0.000000 
0.165681 0.125835 0.000000 
0.127307 0.096665 0.000000 
0.093438 0.067835 0.000000 
0.073196 0.049222 0.000000 
0.053725 0.027663 0.000000 
0.033741 -0.001058 0.000000 
0.023156 -0.019422 0.000000 
0.011963 -0.041158 0.000000 
0.000000 -0.066794 0.000000 
1.000000 -0.056794 0.033333 
0.990850 -0.004097 0.033333 
0.980958 0.040511 0.033333 
0.970376 0.077974 0.033333 
0.947360 0.135238 0.033333 
0.922228 0.175242 0.033333 
0.895405 0.205533 0.033333 
0.852785 0.244831 0.033333 
0.807865 0.278096 0.033333 
0.761190 0.304170 0.033333 
0.712765 0.322372 0.033333 
0.660448 0.333944 0.033333 
0.601555 0.340606 0.033333 
0.534880 0.343794 0.033333 
0.465120 0.343794 0.033333 
0.398445 0.340606 0.033333 
0.339552 0.333944 0.033333 
0.287235 0.322372 0.033333 
0.238810 0.304170 0.033333 
0.192135 0.278096 0.033333 
0.147215 0.244831 0.033333 
0.104595 0.205533 0.033333 
0.077772 0.175242 0.033333 
0.052640 0.135238 0.033333 
0.029624 0.077974 0.033333 
0.019042 0.040511 0.033333 
0.009150 -0.004097 0.033333 
0.000000 -0.056794 0.033333 
1.000000 -0.060127 0.033333 
0.989912 -0.016451 0.033333 
0.979586 0.020533 0.033333 
0.969004 0.051630 0.033333 
0.946999 0.099380 0.033333 
0.923753 0.133235 0.033333 
0.899124 0.159634 0.033333 
0.859421 0.195442 0.033333 
0.816683 0.227342 0.033333 
0.771310 0.253721 0.033333 
0.723143 0.273399 0.033333 
0.669776 0.286944 0.033333 
0.608246 0.295361 0.033333 
0.537318 0.299485 0.033333 
0.462682 0.299485 0.033333 
0.391754 0.295361 0.033333 
0.330224 0.286944 0.033333 
0.276857 0.273399 0.033333 
0.228690 0.253721 0.033333 
0.183317 0.227342 0.033333 
0.140579 0.195442 0.033333 
0.100876 0.159634 0.033333 
0.076247 0.133235 0.033333 
0.053001 0.099380 0.033333 
0.030996 0.051630 0.033333 
0.020414 0.020533 0.033333 
0.010088 -0.016451 0.033333 
0.000000 -0.060127 0.033333 
1.000000 -0.063461 0.033333 
0.988975 -0.028805 0.033333 
0.978215 0.000556 0.033333 
0.967632 0.025286 0.033333 
0.946637 0.063521 0.033333 
0.925278 0.091228 0.033333 
0.902843 0.113734 0.033333 
0.866057 0.146053 0.033333 
0.825501 0.176589 0.033333 
0.781431 0.203271 0.033333 
0.733520 0.224425 0.033333 
0.679104 0.239944 0.033333 
0.614937 0.250115 0.033333 
0.539756 0.255177 0.033333 
0.460244 0.255177 0.033333 
0.385063 0.250115 0.033333 
0.320896 0.239944 0.033333 
0.266480 0.224425 0.033333 
0.218569 0.203271 0.033333 
0.174499 0.176589 0.033333 
0.133943 0.146053 0.033333 
0.097157 0.113734 0.033333 
0.074722 0.091228 0.033333 
0.053363 0.063521 0.033333 
0.032368 0.025286 0.033333 
0.021785 0.000556 0.033333 
0.011025 -0.028805 0.033333 
0.000000 -0.063461 0.033333 
1.000000 -0.066794 0.033333 
0.988037 -0.041158 0.033333 
0.976844 -0.019422 0.033333 
0.966259 -0.001058 0.033333 
0.946275 0.027663 0.033333 
0.926804 0.049222 0.033333 
0.906562 0.067835 0.033333 
0.872693 0.096665 0.033333 
0.834319 0.125835 0.033333 
0.791552 0.152821 0.033333 
0.743897 0.175451 0.033333 
0.688432 0.192944 0.033333 
0.621627 0.204870 0.033333 
0.542195 0.210868 0.033333 
0.457805 0.210868 0.033333 
0.378373 0.204870 0.033333 
0.311568 0.192944 0.033333 
0.256103 0.175451 0.033333 
0.208448 0.152821 0.033333 
0.165681 0.125835 0.033333 
0.127307 0.096665 0.033333 
0.093438 0.067835 0.033333 
0.073196 0.049222 0.033333 
0.053725 0.027663 0.033333 
0.033741 -0.001058 0.033333 
0.023156 -0.019422 0.033333 
0.011963 -0.041158 0.033333 
0.000000 -0.066794 0.033333 
1.000000 -0.056794 0.066667 
0.990850 -0.004097 0.066667 
0.980958 0.040511 0.066667 
0.970376 0.077974 0.066667 
0.947360 0.135238 0.066667 
0.922228 0.175242 0.066667 
0.895405 0.205533 0.066667 
0.852785 0.244831 0.066667 
0.807865 0.278096 0.066667 
0.761190 0.304170 0.066667 
0.712765 0.322372 0.066667 
0.660448 0.333944 0.066667 
0.601555 0.340606 0.066667 
0.534880 0.343794 0.066667 
0.465120 0.343794 0.066667 
0.398445 0.340606 0.066667 
0.339552 0.333944 0.066667 
0.287235 0.322372 0.066667 
0.238810 0.304170 0.066667 
0.192135 0.278096 0.066667 
0.147215 0.244831 0.066667 
0.104595 0.205533 0.066667 
0.077772 0.175242 0.066667 
0.052640 0.135238 0.066667 
0.029624 0.077974 0.066667 
0.019042 0.040511 0.066667 
0.009150 -0.004097 0.066667 
0.000000 -0.056794 0.066667 
1.000000 -0.060127 0.066667 
0.989912 -0.016451 0.066667 
0.979586 0.020533 0.066667 
0.969004 0.051630 0.066667 
0.946999 0.099380 0.066667 
0.923753 0.133235 0.066667 
0.899124 0.159634 0.066667 
0.859421 0.195442 0.066667 
0.816683 0.227342 0.066667 
0.771310 0.253721 0.066667 
0.723143 0.273399 0.066667 
0.669776 0.286944 0.066667 
0.608246 0.295361 0.066667 
0.537318 0.299485 0.066667 
0.462682 0.299485 0.066667 
0.391754 0.295361 0.066667 
0.330224 0.286944 0.066667 
0.276857 0.273399 0.066667 
0.228690 0.253721 0.066667 
0.183317 0.227342 0.066667 
0.140579 0.195442 0.066667 
0.100876 0.159634 0.066667 
0.076247 0.133235 0.066667 
0.053001 0.099380 0.066667 
0.030996 0.051630 0.066667 
0.020414 0.020533 0.066667 
0.010088 -0.016451 0.066667 
0.000000 -0.060127 0.066667 
1.000000 -0.063461 0.066667 
0.988975 -0.028805 0.066667 
0.978215 0.000556 0.066667 
0.967632 0.025286 0.066667 
0.946637 0.063521 0.066667 
0.925278 0.091228 0.066667 
0.902843 0.113734 0.066667 
0.866057 0.146053 0.066667 
0.825501 0.176589 0.066667 
0.781431 0.203271 0.066667 
0.733520 0.224425 0.066667 
0.679104 0.239944 0.066667 
0.614937 0.250115 0.066667 
0.539756 0.255177 0.066667 
0.460244 0.255177 0.066667 
0.385063 0.250115 0.066667 
0.320896 0.239944 0.066667 
0.266480 0.224425 0.066667 
0.218569 0.203271 0.066667 
0.174499 0.176589 0.066667 
0.133943 0.146053 0.066667 
0.097157 0.113734 0.066667 
0.074722 0.091228 0.066667 
0.053363 0.063521 0.066667 
0.032368 0.025286 0.066667 
0.021785 0.000556 0.066667 
0.011025 -0.028805 0.066667 
0.000000 -0.063461 0.066667 
1.000000 -0.066794 0.066667 
0.988037 -0.041158 0.066667 
0.976844 -0.019422 0.066667 
0.966259 -0.001058 0.066667 
0.946275 0.027663 0.066667 
0.926804 0.049222 0.066667 
0.906562 0.067835 0.066667 
0.872693 0.096665 0.066667 
0.834319 0.125835 0.066667 
0.791552 0.152821 0.066667 
0.743897 0.175451 0.066667 
0.688432 0.192944 0.066667 
0.621627 0.204870 0.066667 
0.542195 0.210868 0.066667 
0.457805 0.210868 0.066667 
0.378373 0.204870 0.066667 
0.311568 0.192944 0.066667 
0.256103 0.175451 0.066667 
0.208448 0.152821 0.066667 
0.165681 0.125835 0.066667 
0.127307 0.096665 0.066667 
0.093438 0.067835 0.066667 
0.073196 0.049222 0.066667 
0.053725 0.027663 0.066667 
0.033741 -0.001058 0.066667 
0.023156 -0.019422 0.066667 
0.011963 -0.041158 0.066667 
0.000000 -0.066794 0.066667 
1.000000 -0.056794 0.100000 
0.990850 -0.004097 0.100000 
0.980958 0.040511 0.100000 
0.970376 0.077974 0.100000 
0.947360 0.135238 0.100000 
0.922228 0.175242 0.100000 
0.895405 0.205533 0.100000 
0.852785 0.244831 0.100000 
0.807865 0.278096 0.100000 
0.761190 0.304170 0.100000 
0.712765 0.322372 0.100000 
0.660448 0.333944 0.100000 
0.601555 0.340606 0.100000 
0.534880 0.343794 0.100000 
0.465120 0.343794 0.100000 
0.398445 0.340606 0.100000 
0.339552 0.333944 0.100000 
0.287235 0.322372 0.100000 
0.238810 0.304170 0.100000 
0.192135 0.278096 0.100000 
0.147215 0.244831 0.100000 
0.104595 0.205533 0.100000 
0.077772 0.175242 0.100000 
0.052640 0.135238 0.100000 
0.029624 0.077974 0.100000 
0.019042 0.040511 0.100000 
0.009150 -0.004097 0.100000 
0.000000 -0.056794 0.100000 
1.000000 -0.060127 0.100000 
0.989912 -0.016451 0.100000 
0.979586 0.020533 0.100000 
0.969004 0.051630 0.100000 
0.946999 0.099380 0.100000 
0.923753 0.133235 0.100000 
0.899124 0.159634 0.100000 
0.859421 0.195442 0.100000 
0.816683 0.227342 0.100000 
0.771310 0.253721 0.100000 
0.723143 0.273399 0.100000 
0.669776 0.286944 0.100000 
0.608246 0.295361 0.100000 
0.537318 0.299485 0.100000 
0.462682 0.299485 0.100000 
0.391754 0.295361 0.100000 
0.330224 0.286944 0.100000 
0.276857 0.273399 0.100000 
0.228690 0.253721 0.100000 
0.183317 0.227342 0.100000 
0.140579 0.195442 0.100000 
0.100876 0.159634 0.100000 
0.076247 0.133235 0.100000 
0.053001 0.099380 0.100000 
0.030996 0.051630 0.100000 
0.020414 0.020533 0.100000 
0.010088 -0.016451 0.100000 
0.000000 -0.060127 0.100000 
1.000000 -0.063461 0.100000 
0.988975 -0.028805 0.100000 
0.978215 0.000556 0.100000 
0.967632 0.025286 0.100000 
0.946637 0.063521 0.100000 
0.925278 0.091228 0.100000 
0.902843 0.113734 0.100000 
0.866057 0.146053 0.100000 
0.825501 0.176589 0.100000 
0.781431 0.203271 0.100000 
0.733520 0.224425 0.100000 
0.679104 0.239944 0.100000 
0.614937 0.250115 0.100000 
0.539756 0.255177 0.100000 
0.460244 0.255177 0.100000 
0.385063 0.250115 0.100000 
0.320896 0.239944 0.100000 
0.266480 0.224425 0.100000 
0.218569 0.203271 0.100000 
0.174499 0.176589 0.100000 
0.133943 0.146053 0.100000 
0.097157 0.113734 0.100000 
0.074722 0.091228 0.100000 
0.053363 0.063521 0.100000 
0.032368 0.025286 0.100000 
0.021785 0.000556 0.100000 
0.011025 -0.028805 0.100000 
0.000000 -0.063461 0.100000 
1.000000 -0.066794 0.100000 
0.988037 -0.041158 0.100000 
0.976844 -0.019422 0.100000 
0.966259 -0.001058 0.100000 
0.946275 0.027663 0.100000 
0.926804 0.049222 0.100000 
0.906562 0.067835 0.100000 
0.872693 0.096665 0.100000 
0.834319 0.125835 0.100000 
0.791552 0.152821 0.100000 
0.743897 0.175451 0.100000 
0.688432 0.192944 0.100000 
0.621627 0.204870 0.100000 
0.542195 0.210868 0.100000 
0.457805 0.210868 0.100000 
0.378373 0.204870 0.100000 
0.311568 0.192944 0.100000 
0.256103 0.175451 0.100000 
0.208448 0.152821 0.100000 
0.165681 0.125835 0.100000 
0.127307 0.096665 0.100000 
0.093438 0.067835 0.100000 
0.073196 0.049222 0.100000 
0.053725 0.027663 0.100000 
0.033741 -0.001058 0.100000 
0.023156 -0.019422 0.100000 
0.011963 -0.041158 0.100000 
0.000000 -0.066794 0.100000 
Zone T="FFD_vol1" I=10 J=2 K=2
DATAPACKING=POINT
1.744487 -0.898512 0.000000 
1.705806 -0.705561 0.000000 
1.643420 -0.606628 0.000000 
1.572588 -0.520077 0.000000 
1.493716 -0.418399 0.000000 
1.406519 -0.361748 0.000000 
1.311488 -0.283168 0.000000 
1.204855 -0.210864 0.000000 
1.090555 -0.163842 0.000000 
0.932878 -0.226002 0.000000 
1.735704 -0.910673 0.000000 
1.695571 -0.718544 0.000000 
1.630721 -0.621227 0.000000 
1.557151 -0.536799 0.000000 
1.475610 -0.437577 0.000000 
1.386159 -0.383407 0.000000 
1.289442 -0.307155 0.000000 
1.181807 -0.236962 0.000000 
1.067122 -0.191360 0.000000 
0.927023 -0.234108 0.000000 
1.744487 -0.898512 0.100000 
1.705806 -0.705561 0.100000 
1.643420 -0.606628 0.100000 
1.572588 -0.520077 0.100000 
1.493716 -0.418399 0.100000 
1.406519 -0.361748 0.100000 
1.311488 -0.283168 0.100000 
1.204855 -0.210864 0.100000 
1.090555 -0.163842 0.100000 
0.932878 -0.226002 0.100000 
1.735704 -0.910673 0.100000 
1.695571 -0.718544 0.100000 
1.630721 -0.621227 0.100000 
1.557151 -0.536799 0.100000 
1.475610 -0.437577 0.100000 
1.386159 -0.383407 0.100000 
1.289442 -0.307155 0.100000 
1.181807 -0.236962 0.100000 
1.067122 -0.191360 0.100000 
0.927023 -0.234108 0.100000 
Zone T="embedding_vol" I=28 J=4 K=4
DATAPACKING=POINT
1.744487 -0.898512 0.000000 
1.731866 -0.839327 0.000000 
1.719768 -0.789674 0.000000 
1.708165 -0.748457 0.000000 
1.686318 -0.686948 0.000000 
1.666081 -0.646030 0.000000 
1.647211 -0.616936 0.000000 
1.620883 -0.580739 0.000000 
1.595942 -0.548562 0.000000 
1.571248 -0.517556 0.000000 
1.545849 -0.485715 0.000000 
1.519546 -0.454422 0.000000 
1.492328 -0.425903 0.000000 
1.464191 -0.401603 0.000000 
1.435146 -0.379827 0.000000 
1.405213 -0.358093 0.000000 
1.374384 -0.334510 0.000000 
1.342544 -0.309536 0.000000 
1.309554 -0.284214 0.000000 
1.274971 -0.259387 0.000000 
1.237127 -0.235092 0.000000 
1.194052 -0.211159 0.000000 
1.160569 -0.196269 0.000000 
1.117977 -0.187088 0.000000 
1.060369 -0.189237 0.000000 
1.024087 -0.196317 0.000000 
0.981837 -0.208338 0.000000 
0.932878 -0.226002 0.000000 
1.741560 -0.902565 0.000000 
1.728779 -0.843471 0.000000 
1.716529 -0.793909 0.000000 
1.704777 -0.752782 0.000000 
1.682648 -0.691452 0.000000 
1.662148 -0.650709 0.000000 
1.643031 -0.621786 0.000000 
1.616362 -0.585837 0.000000 
1.591104 -0.553905 0.000000 
1.566106 -0.523149 0.000000 
1.540409 -0.491568 0.000000 
1.513814 -0.460543 0.000000 
1.486316 -0.432298 0.000000 
1.457913 -0.408272 0.000000 
1.428620 -0.386768 0.000000 
1.398458 -0.365304 0.000000 
1.367420 -0.341986 0.000000 
1.335395 -0.317269 0.000000 
1.302244 -0.292198 0.000000 
1.267523 -0.267614 0.000000 
1.229564 -0.243556 0.000000 
1.186393 -0.219860 0.000000 
1.152920 -0.205053 0.000000 
1.110733 -0.195514 0.000000 
1.054314 -0.196422 0.000000 
1.019042 -0.202413 0.000000 
0.978143 -0.212957 0.000000 
0.930926 -0.228704 0.000000 
1.738632 -0.906619 0.000000 
1.725693 -0.847616 0.000000 
1.713289 -0.798144 0.000000 
1.701389 -0.757108 0.000000 
1.678978 -0.695956 0.000000 
1.658214 -0.655388 0.000000 
1.638852 -0.626636 0.000000 
1.611841 -0.590935 0.000000 
1.586266 -0.559248 0.000000 
1.560965 -0.528741 0.000000 
1.534969 -0.497420 0.000000 
1.508082 -0.466664 0.000000 
1.480304 -0.438692 0.000000 
1.451635 -0.414941 0.000000 
1.422094 -0.393710 0.000000 
1.391703 -0.372516 0.000000 
1.360457 -0.349461 0.000000 
1.328246 -0.325002 0.000000 
1.294933 -0.300181 0.000000 
1.260075 -0.275841 0.000000 
1.222001 -0.252021 0.000000 
1.178734 -0.228560 0.000000 
1.145270 -0.213837 0.000000 
1.103489 -0.203940 0.000000 
1.048259 -0.203608 0.000000 
1.013997 -0.208508 0.000000 
0.974450 -0.217577 0.000000 
0.928974 -0.231406 0.000000 
1.735704 -0.910673 0.000000 
1.722607 -0.851761 0.000000 
1.710049 -0.802380 0.000000 
1.698001 -0.761434 0.000000 
1.675308 -0.700460 0.000000 
1.654281 -0.660067 0.000000 
1.634672 -0.631485 0.000000 
1.607319 -0.596033 0.000000 
1.581427 -0.564591 0.000000 
1.555823 -0.534334 0.000000 
1.529528 -0.503273 0.000000 
1.502351 -0.472785 0.000000 
1.474292 -0.445086 0.000000 
1.445358 -0.421609 0.000000 
1.415569 -0.400652 0.000000 
1.384948 -0.379727 0.000000 
1.353494 -0.356937 0.000000 
1.321097 -0.332735 0.000000 
1.287622 -0.308165 0.000000 
1.252627 -0.284068 0.000000 
1.214438 -0.260486 0.000000 
1.171075 -0.237261 0.000000 
1.137621 -0.222621 0.000000 
1.096245 -0.212366 0.000000 
1.042204 -0.210793 0.000000 
1.008952 -0.214604 0.000000 
0.970756 -0.222197 0.000000 
0.927023 -0.234108 0.000000 
1.744487 -0.898512 0.033333 
1.731866 -0.839327 0.033333 
1.719768 -0.789674 0.033333 
1.708165 -0.748457 0.033333 
1.686318 -0.686948 0.033333 
1.666081 -0.646030 0.033333 
1.647211 -0.616936 0.033333 
1.620883 -0.580739 0.033333 
1.595942 -0.548562 0.033333 
1.571248 -0.517556 0.033333 
1.545849 -0.485715 0.033333 
1.519546 -0.454422 0.033333 
1.492328 -0.425903 0.033333 
1.464191 -0.401603 0.033333 
1.435146 -0.379827 0.033333 
1.405213 -0.358093 0.033333 
1.374384 -0.334510 0.033333 
1.342544 -0.309536 0.033333 
1.309554 -0.284214 0.033333 
1.274971 -0.259387 0.033333 
1.237127 -0.235092 0.033333 
1.194052 -0.211159 0.033333 
1.160569 -0.196269 0.033333 
1.117977 -0.187088 0.033333 
1.060369 -0.189237 0.033333 
1.024087 -0.196317 0.033333 
0.981837 -0.208338 0.033333 
0.932878 -0.226002 0.033333 
1.741560 -0.902565 0.033333 
1.728779 -0.843471 0.033333 
1.716529 -0.793909 0.033333 
1.704777 -0.752782 0.033333 
1.682648 -0.691452 0.033333 
1.662148 -0.650709 0.033333 
1.643031 -0.621786 0.033333 
1.616362 -0.585837 0.033333 
1.591104 -0.553905 0.033333 
1.566106 -0.523149 0.033333 
1.540409 -0.491568 0.033333 
1.513814 -0.460543 0.033333 
1.486316 -0.432298 0.033333 
1.457913 -0.408272 0.033333 
1.428620 -0.386768 0.033333 
1.398458 -0.365304 0.033333 
1.367420 -0.341986 0.033333 
1.335395 -0.317269 0.033333 
1.302244 -0.292198 0.033333 
1.267523 -0.267614 0.033333 
1.229564 -0.243556 0.033333 
1.186393 -0.219860 0.033333 
1.152920 -0.205053 0.033333 
1.110733 -0.195514 0.033333 
1.054314 -0.196422 0.033333 
1.019042 -0.202413 0.033333 
0.978143 -0.212957 0.033333 
0.930926 -0.228704 0.033333 
1.738632 -0.906619 0.033333 
1.725693 -0.847616 0.033333 
1.713289 -0.798144 0.033333 
1.701389 -0.757108 0.033333 
1.678978 -0.695956 0.033333 
1.658214 -0.655388 0.033333 
1.638852 -0.626636 0.033333 
1.611841 -0.590935 0.033333 
1.586266 -0.559248 0.033333 
1.560965 -0.528741 0.033333 
1.534969 -0.497420 0.033333 
1.508082 -0.466664 0.033333 
1.480304 -0.438692 0.033333 
1.451635 -0.414941 0.033333 
1.422094 -0.393710 0.033333 
1.391703 -0.372516 0.033333 
1.360457 -0.349461 0.033333 
1.328246 -0.325002 0.033333 
1.294933 -0.300181 0.033333 
1.260075 -0.275841 0.033333 
1.222001 -0.252021 0.033333 
1.178734 -0.228560 0.033333 
1.145270 -0.213837 0.033333 
1.103489 -0.203940 0.033333 
1.048259 -0.203608 0.033333 
1.013997 -0.208508 0.033333 
0.974450 -0.217577 0.033333 
0.928974 -0.231406 0.033333 
1.735704 -0.910673 0.033333 
1.722607 -0.851761 0.033333 
1.710049 -0.802380 0.033333 
1.698001 -0.761434 0.033333 
1.675308 -0.700460 0.033333 
1.654281 -0.660067 0.033333 
1.634672 -0.631485 0.033333 
1.607319 -0.596033 0.033333 
1.581427 -0.564591 0.033333 
1.555823 -0.534334 0.033333 
1.529528 -0.503273 0.033333 
1.502351 -0.472785 0.033333 
1.474292 -0.445086 0.033333 
1.445358 -0.421609 0.033333 
1.415569 -0.400652 0.033333 
1.384948 -0.379727 0.033333 
1.353494 -0.356937 0.033333 
1.321097 -0.332735 0.033333 
1.287622 -0.308165 0.033333 
1.252627 -0.284068 0.033333 
1.214438 -0.260486 0.033333 
1.171075 -0.237261 0.033333 
1.137621 -0.222621 0.033333 
1.096245 -0.212366 0.033333 
1.042204 -0.210793 0.033333 
1.008952 -0.214604 0.033333 
0.970756 -0.222197 0.033333 
0.927023 -0.234108 0.033333 
1.744487 -0.898512 0.066667 
1.731866 -0.839327 0.066667 
1.719768 -0.789674 0.066667 
1.708165 -0.748457 0.066667 
1.686318 -0.686948 0.066667 
1.666081 -0.646030 0.066667 
1.647211 -0.616936 0.066667 
1.620883 -0.580739 0.066667 
1.595942 -0.548562 0.066667 
1.571248 -0.517556 0.066667 
1.545849 -0.485715 0.066667 
1.519546 -0.454422 0.066667 
1.492328 -0.425903 0.066667 
1.464191 -0.401603 0.066667 
1.435146 -0.379827 0.066667 
1.405213 -0.358093 0.066667 
1.374384 -0.334510 0.066667 
1.342544 -0.309536 0.066667 
1.309554 -0.284214 0.066667 
1.274971 -0.259387 0.066667 
1.237127 -0.235092 0.066667 
1.194052 -0.211159 0.066667 
1.160569 -0.196269 0.066667 
1.117977 -0.187088 0.066667 
1.060369 -0.189237 0.066667 
1.024087 -0.196317 0.066667 
0.981837 -0.208338 0.066667 
0.932878 -0.226002 0.066667 
1.741560 -0.902565 0.066667 
1.728779 -0.843471 0.066667 
1.716529 -0.793909 0.066667 
1.704777 -0.752782 0.066667 
1.682648 -0.691452 0.066667 
1.662148 -0.650709 0.066667 
1.643031 -0.621786 0.066667 
1.616362 -0.585837 0.066667 
1.591104 -0.553905 0.066667 
1.566106 -0.523149 0.066667 
1.540409 -0.491568 0.066667 
1.513814 -0.460543 0.066667 
1.486316 -0.432298 0.066667 
1.457913 -0.408272 0.066667 
1.428620 -0.386768 0.066667 
1.398458 -0.365304 0.066667 
1.367420 -0.341986 0.066667 
1.335395 -0.317269 0.066667 
1.302244 -0.292198 0.066667 
1.267523 -0.267614 0.066667 
1.229564 -0.243556 0.066667 
1.186393 -0.219860 0.066667 
1.152920 -0.205053 0.066667 
1.110733 -0.195514 0.066667 
1.054314 -0.196422 0.066667 
1.019042 -0.202413 0.066667 
0.978143 -0.212957 0.066667 
0.930926 -0.228704 0.066667 
1.738632 -0.906619 0.066667 
1.725693 -0.847616 0.066667 
1.713289 -0.798144 0.066667 
1.701389 -0.757108 0.066667 
1.678978 -0.695956 0.066667 
1.658214 -0.655388 0.066667 
1.638852 -0.626636 0.066667 
1.611841 -0.590935 0.066667 
1.586266 -0.559248 0.066667 
1.560965 -0.528741 0.066667 
1.534969 -0.497420 0.066667 
1.508082 -0.466664 0.066667 
1.480304 -0.438692 0.066667 
1.451635 -0.414941 0.066667 
1.422094 -0.393710 0.066667 
1.391703 -0.372516 0.066667 
1.360457 -0.349461 0.066667 
1.328246 -0.325002 0.066667 
1.294933 -0.300181 0.066667 
1.260075 -0.275841 0.066667 
1.222001 -0.252021 0.066667 
1.178734 -0.228560 0.066667 
1.145270 -0.213837 0.066667 
1.103489 -0.203940 0.066667 
1.048259 -0.203608 0.066667 
1.013997 -0.208508 0.066667 
0.974450 -0.217577 0.066667 
0.928974 -0.231406 0.066667 
1.735704 -0.910673 0.066667 
1.722607 -0.851761 0.066667 
1.710049 -0.802380 0.066667 
1.698001 -0.761434 0.066667 
1.675308 -0.700460 0.066667 
1.654281 -0.660067 0.066667 
1.634672 -0.631485 0.066667 
1.607319 -0.596033 0.066667 
1.581427 -0.564591 0.066667 
1.555823 -0.534334 0.066667 
1.529528 -0.503273 0.066667 
1.502351 -0.472785 0.066667 
1.474292 -0.445086 0.066667 
1.445358 -0.421609 0.066667 
1.415569 -0.400652 0.066667 
1.384948 -0.379727 0.066667 
1.353494 -0.356937 0.066667 
1.321097 -0.332735 0.066667 
1.287622 -0.308165 0.066667 
1.252627 -0.284068 0.066667 
1.214438 -0.260486 0.066667 
1.171075 -0.237261 0.066667 
1.137621 -0.222621 0.066667 
1.096245 -0.212366 0.066667 
1.042204 -0.210793 0.066667 
1.008952 -0.214604 0.066667 
0.970756 -0.222197 0.066667 
0.927023 -0.234108 0.066667 
1.744487 -0.898512 0.100000 
1.731866 -0.839327 0.100000 
1.719768 -0.789674 0.100000 
1.708165 -0.748457 0.100000 
1.686318 -0.686948 0.100000 
1.666081 -0.646030 0.100000 
1.647211 -0.616936 0.100000 
1.620883 -0.580739 0.100000 
1.595942 -0.548562 0.100000 
1.571248 -0.517556 0.100000 
1.545849 -0.485715 0.100000 
1.519546 -0.454422 0.100000 
1.492328 -0.425903 0.100000 
1.464191 -0.401603 0.100000 
1.435146 -0.379827 0.100000 
1.405213 -0.358093 0.100000 
1.374384 -0.334510 0.100000 
1.342544 -0.309536 0.100000 
1.309554 -0.284214 0.100000 
1.274971 -0.259387 0.100000 
1.237127 -0.235092 0.100000 
1.194052 -0.211159 0.100000 
1.160569 -0.196269 0.100000 
1.117977 -0.187088 0.100000 
1.060369 -0.189237 0.100000 
1.024087 -0.196317 0.100000 
0.981837 -0.208338 0.100000 
0.932878 -0.226002 0.100000 
1.741560 -0.902565 0.100000 
1.728779 -0.843471 0.100000 
1.716529 -0.793909 0.100000 
1.704777 -0.752782 0.100000 
1.682648 -0.691452 0.100000 
1.662148 -0.650709 0.100000 
1.643031 -0.621786 0.100000 
1.616362 -0.585837 0.100000 
1.591104 -0.553905 0.100000 
1.566106 -0.523149 0.100000 
1.540409 -0.491568 0.100000 
1.513814 -0.460543 0.100000 
1.486316 -0.432298 0.100000 
1.457913 -0.408272 0.100000 
1.428620 -0.386768 0.100000 
1.398458 -0.365304 0.100000 
1.367420 -0.341986 0.100000 
1.335395 -0.317269 0.100000 
1.302244 -0.292198 0.100000 
1.267523 -0.267614 0.100000 
1.229564 -0.243556 0.100000 
1.186393 -0.219860 0.100000 
1.152920 -0.205053 0.100000 
1.110733 -0.195514 0.100000 
1.054314 -0.196422 0.100000 
1.019042 -0.202413 0.100000 
0.978143 -0.212957 0.100000 
0.930926 -0.228704 0.100000 
1.738632 -0.906619 0.100000 
1.725693 -0.847616 0.100000 
1.713289 -0.798144 0.100000 
1.701389 -0.757108 0.100000 
1.678978 -0.695956 0.100000 
1.658214 -0.655388 0.100000 
1.638852 -0.626636 0.100000 
1.611841 -0.590935 0.100000 
1.586266 -0.559248 0.100000 
1.560965 -0.528741 0.100000 
1.534969 -0.497420 0.100000 
1.508082 -0.466664 0.100000 
1.480304 -0.438692 0.100000 
1.451635 -0.414941 0.100000 
1.422094 -0.393710 0.100000 
1.391703 -0.372516 0.100000 
1.360457 -0.349461 0.100000 
1.328246 -0.325002 0.100000 
1.294933 -0.300181 0.100000 
1.260075 -0.275841 0.100000 
1.222001 -0.252021 0.100000 
1.178734 -0.228560 0.100000 
1.145270 -0.213837 0.100000 
1.103489 -0.203940 0.100000 
1.048259 -0.203608 0.100000 
1.013997 -0.208508 0.100000 
0.974450 -0.217577 0.100000 
0.928974 -0.231406 0.100000 
1.735704 -0.910673 0.100000 
1.722607 -0.851761 0.100000 
1.710049 -0.802380 0.100000 
1.698001 -0.761434 0.100000 
1.675308 -0.700460 0.100000 
1.654281 -0.660067 0.100000 
1.634672 -0.631485 0.100000 
1.607319 -0.596033 0.100000 
1.581427 -0.564591 0.100000 
1.555823 -0.534334 0.100000 
1.529528 -0.503273 0.100000 
1.502351 -0.472785 0.100000 
1.474292 -0.445086 0.100000 
1.445358 -0.421609 0.100000 
1.415569 -0.400652 0.100000 
1.384948 -0.379727 0.100000 
1.353494 -0.356937 0.100000 
1.321097 -0.332735 0.100000 
1.287622 -0.308165 0.100000 
1.252627 -0.284068 0.100000 
1.214438 -0.260486 0.100000 
1.171075 -0.237261 0.100000 
1.137621 -0.222621 0.100000 
1.096245 -0.212366 0.100000 
1.042204 -0.210793 0.100000 
1.008952 -0.214604 0.100000 
0.970756 -0.222197 0.100000 
0.927023 -0.234108 0.100000 
