VARIABLES = "CoordinateX", "CoordinateY", "CoordinateZ"
Zone T="FFD_vol0" I=10 J=2 K=2
DATAPACKING=POINT
1.000000 -0.066084 0.000000 
0.973716 0.114264 0.000000 
0.899672 0.215816 0.000000 
0.763006 0.320747 0.000000 
0.615441 0.350258 0.000000 
0.384559 0.350258 0.000000 
0.236994 0.320747 0.000000 
0.100328 0.215816 0.000000 
0.026284 0.114264 0.000000 
0.000000 -0.066084 0.000000 
1.000000 -0.076084 0.000000 
0.962798 0.016381 0.000000 
0.913486 0.066517 0.000000 
0.797974 0.163928 0.000000 
0.643930 0.218738 0.000000 
0.356070 0.218738 0.000000 
0.202026 0.163928 0.000000 
0.086514 0.066517 0.000000 
0.037202 0.016381 0.000000 
0.000000 -0.076084 0.000000 
1.000000 -0.066084 0.100000 
0.973716 0.114264 0.100000 
0.899672 0.215816 0.100000 
0.763006 0.320747 0.100000 
0.615441 0.350258 0.100000 
0.384559 0.350258 0.100000 
0.236994 0.320747 0.100000 
0.100328 0.215816 0.100000 
0.026284 0.114264 0.100000 
0.000000 -0.066084 0.100000 
1.000000 -0.076084 0.100000 
0.962798 0.016381 0.100000 
0.913486 0.066517 0.100000 
0.797974 0.163928 0.100000 
0.643930 0.218738 0.100000 
0.356070 0.218738 0.100000 
0.202026 0.163928 0.100000 
0.086514 0.066517 0.100000 
0.037202 0.016381 0.100000 
0.000000 -0.076084 0.100000 
Zone T="embedding_vol" I=28 J=4 K=4
DATAPACKING=POINT
1.000000 -0.066084 0.000000 
0.990850 -0.010600 0.000000 
0.980958 0.036288 0.000000 
0.970376 0.075580 0.000000 
0.947360 0.135385 0.000000 
0.922228 0.176827 0.000000 
0.895405 0.207916 0.000000 
0.852785 0.247987 0.000000 
0.807865 0.281753 0.000000 
0.761190 0.308177 0.000000 
0.712765 0.326677 0.000000 
0.660448 0.338498 0.000000 
0.601555 0.345340 0.000000 
0.534880 0.348619 0.000000 
0.465120 0.348619 0.000000 
0.398445 0.345340 0.000000 
0.339552 0.338498 0.000000 
0.287235 0.326677 0.000000 
0.238810 0.308177 0.000000 
0.192135 0.281753 0.000000 
0.147215 0.247987 0.000000 
0.104595 0.207916 0.000000 
0.077772 0.176827 0.000000 
0.052640 0.135385 0.000000 
0.029624 0.075580 0.000000 
0.019042 0.036288 0.000000 
0.009150 -0.010600 0.000000 
0.000000 -0.066084 0.000000 
1.000000 -0.069417 0.000000 
0.989912 -0.022953 0.000000 
0.979586 0.016310 0.000000 
0.969004 0.049236 0.000000 
0.946999 0.099527 0.000000 
0.923753 0.134820 0.000000 
0.899124 0.162017 0.000000 
0.859421 0.198598 0.000000 
0.816683 0.230999 0.000000 
0.771310 0.257727 0.000000 
0.723143 0.277703 0.000000 
0.669776 0.291498 0.000000 
0.608246 0.300094 0.000000 
0.537318 0.304310 0.000000 
0.462682 0.304310 0.000000 
0.391754 0.300094 0.000000 
0.330224 0.291498 0.000000 
0.276857 0.277703 0.000000 
0.228690 0.257727 0.000000 
0.183317 0.230999 0.000000 
0.140579 0.198598 0.000000 
0.100876 0.162017 0.000000 
0.076247 0.134820 0.000000 
0.053001 0.099527 0.000000 
0.030996 0.049236 0.000000 
0.020414 0.016310 0.000000 
0.010088 -0.022953 0.000000 
0.000000 -0.069417 0.000000 
1.000000 -0.072750 0.000000 
0.988975 -0.035307 0.000000 
0.978215 -0.003668 0.000000 
0.967632 0.022892 0.000000 
0.946637 0.063669 0.000000 
0.925278 0.092813 0.000000 
0.902843 0.116117 0.000000 
0.866057 0.149209 0.000000 
0.825501 0.180245 0.000000 
0.781431 0.207278 0.000000 
0.733520 0.228730 0.000000 
0.679104 0.244498 0.000000 
0.614937 0.254848 0.000000 
0.539756 0.260001 0.000000 
0.460244 0.260001 0.000000 
0.385063 0.254848 0.000000 
0.320896 0.244498 0.000000 
0.266480 0.228730 0.000000 
0.218569 0.207278 0.000000 
0.174499 0.180245 0.000000 
0.133943 0.149209 0.000000 
0.097157 0.116117 0.000000 
0.074722 0.092813 0.000000 
0.053363 0.063669 0.000000 
0.032368 0.022892 0.000000 
0.021785 -0.003668 0.000000 
0.011025 -0.035307 0.000000 
0.000000 -0.072750 0.000000 
1.000000 -0.076084 0.000000 
0.988037 -0.047661 0.000000 
0.976844 -0.023645 0.000000 
0.966259 -0.003451 0.000000 
0.946275 0.027811 0.000000 
0.926804 0.050807 0.000000 
0.906562 0.070218 0.000000 
0.872693 0.099821 0.000000 
0.834319 0.129491 0.000000 
0.791552 0.156828 0.000000 
0.743897 0.179756 0.000000 
0.688432 0.197498 0.000000 
0.621627 0.209603 0.000000 
0.542195 0.215693 0.000000 
0.457805 0.215693 0.000000 
0.378373 0.209603 0.000000 
0.311568 0.197498 0.000000 
0.256103 0.179756 0.000000 
0.208448 0.156828 0.000000 
0.165681 0.129491 0.000000 
0.127307 0.099821 0.000000 
0.093438 0.070218 0.000000 
0.073196 0.050807 0.000000 
0.053725 0.027811 0.000000 
0.033741 -0.003451 0.000000 
0.023156 -0.023645 0.000000 
0.011963 -0.047661 0.000000 
0.000000 -0.076084 0.000000 
1.000000 -0.066084 0.033333 
0.990850 -0.010600 0.033333 
0.980958 0.036288 0.033333 
0.970376 0.075580 0.033333 
0.947360 0.135385 0.033333 
0.922228 0.176827 0.033333 
0.895405 0.207916 0.033333 
0.852785 0.247987 0.033333 
0.807865 0.281753 0.033333 
0.761190 0.308177 0.033333 
0.712765 0.326677 0.033333 
0.660448 0.338498 0.033333 
0.601555 0.345340 0.033333 
0.534880 0.348619 0.033333 
0.465120 0.348619 0.033333 
0.398445 0.345340 0.033333 
0.339552 0.338498 0.033333 
0.287235 0.326677 0.033333 
0.238810 0.308177 0.033333 
0.192135 0.281753 0.033333 
0.147215 0.247987 0.033333 
0.104595 0.207916 0.033333 
0.077772 0.176827 0.033333 
0.052640 0.135385 0.033333 
0.029624 0.075580 0.033333 
0.019042 0.036288 0.033333 
0.009150 -0.010600 0.033333 
0.000000 -0.066084 0.033333 
1.000000 -0.069417 0.033333 
0.989912 -0.022953 0.033333 
0.979586 0.016310 0.033333 
0.969004 0.049236 0.033333 
0.946999 0.099527 0.033333 
0.923753 0.134820 0.033333 
0.899124 0.162017 0.033333 
0.859421 0.198598 0.033333 
0.816683 0.230999 0.033333 
0.771310 0.257727 0.033333 
0.723143 0.277703 0.033333 
0.669776 0.291498 0.033333 
0.608246 0.300094 0.033333 
0.537318 0.304310 0.033333 
0.462682 0.304310 0.033333 
0.391754 0.300094 0.033333 
0.330224 0.291498 0.033333 
0.276857 0.277703 0.033333 
0.228690 0.257727 0.033333 
0.183317 0.230999 0.033333 
0.140579 0.198598 0.033333 
0.100876 0.162017 0.033333 
0.076247 0.134820 0.033333 
0.053001 0.099527 0.033333 
0.030996 0.049236 0.033333 
0.020414 0.016310 0.033333 
0.010088 -0.022953 0.033333 
0.000000 -0.069417 0.033333 
1.000000 -0.072750 0.033333 
0.988975 -0.035307 0.033333 
0.978215 -0.003668 0.033333 
0.967632 0.022892 0.033333 
0.946637 0.063669 0.033333 
0.925278 0.092813 0.033333 
0.902843 0.116117 0.033333 
0.866057 0.149209 0.033333 
0.825501 0.180245 0.033333 
0.781431 0.207278 0.033333 
0.733520 0.228730 0.033333 
0.679104 0.244498 0.033333 
0.614937 0.254848 0.033333 
0.539756 0.260001 0.033333 
0.460244 0.260001 0.033333 
0.385063 0.254848 0.033333 
0.320896 0.244498 0.033333 
0.266480 0.228730 0.033333 
0.218569 0.207278 0.033333 
0.174499 0.180245 0.033333 
0.133943 0.149209 0.033333 
0.097157 0.116117 0.033333 
0.074722 0.092813 0.033333 
0.053363 0.063669 0.033333 
0.032368 0.022892 0.033333 
0.021785 -0.003668 0.033333 
0.011025 -0.035307 0.033333 
0.000000 -0.072750 0.033333 
1.000000 -0.076084 0.033333 
0.988037 -0.047661 0.033333 
0.976844 -0.023645 0.033333 
0.966259 -0.003451 0.033333 
0.946275 0.027811 0.033333 
0.926804 0.050807 0.033333 
0.906562 0.070218 0.033333 
0.872693 0.099821 0.033333 
0.834319 0.129491 0.033333 
0.791552 0.156828 0.033333 
0.743897 0.179756 0.033333 
0.688432 0.197498 0.033333 
0.621627 0.209603 0.033333 
0.542195 0.215693 0.033333 
0.457805 0.215693 0.033333 
0.378373 0.209603 0.033333 
0.311568 0.197498 0.033333 
0.256103 0.179756 0.033333 
0.208448 0.156828 0.033333 
0.165681 0.129491 0.033333 
0.127307 0.099821 0.033333 
0.093438 0.070218 0.033333 
0.073196 0.050807 0.033333 
0.053725 0.027811 0.033333 
0.033741 -0.003451 0.033333 
0.023156 -0.023645 0.033333 
0.011963 -0.047661 0.033333 
0.000000 -0.076084 0.033333 
1.000000 -0.066084 0.066667 
0.990850 -0.010600 0.066667 
0.980958 0.036288 0.066667 
0.970376 0.075580 0.066667 
0.947360 0.135385 0.066667 
0.922228 0.176827 0.066667 
0.895405 0.207916 0.066667 
0.852785 0.247987 0.066667 
0.807865 0.281753 0.066667 
0.761190 0.308177 0.066667 
0.712765 0.326677 0.066667 
0.660448 0.338498 0.066667 
0.601555 0.345340 0.066667 
0.534880 0.348619 0.066667 
0.465120 0.348619 0.066667 
0.398445 0.345340 0.066667 
0.339552 0.338498 0.066667 
0.287235 0.326677 0.066667 
0.238810 0.308177 0.066667 
0.192135 0.281753 0.066667 
0.147215 0.247987 0.066667 
0.104595 0.207916 0.066667 
0.077772 0.176827 0.066667 
0.052640 0.135385 0.066667 
0.029624 0.075580 0.066667 
0.019042 0.036288 0.066667 
0.009150 -0.010600 0.066667 
0.000000 -0.066084 0.066667 
1.000000 -0.069417 0.066667 
0.989912 -0.022953 0.066667 
0.979586 0.016310 0.066667 
0.969004 0.049236 0.066667 
0.946999 0.099527 0.066667 
0.923753 0.134820 0.066667 
0.899124 0.162017 0.066667 
0.859421 0.198598 0.066667 
0.816683 0.230999 0.066667 
0.771310 0.257727 0.066667 
0.723143 0.277703 0.066667 
0.669776 0.291498 0.066667 
0.608246 0.300094 0.066667 
0.537318 0.304310 0.066667 
0.462682 0.304310 0.066667 
0.391754 0.300094 0.066667 
0.330224 0.291498 0.066667 
0.276857 0.277703 0.066667 
0.228690 0.257727 0.066667 
0.183317 0.230999 0.066667 
0.140579 0.198598 0.066667 
0.100876 0.162017 0.066667 
0.076247 0.134820 0.066667 
0.053001 0.099527 0.066667 
0.030996 0.049236 0.066667 
0.020414 0.016310 0.066667 
0.010088 -0.022953 0.066667 
0.000000 -0.069417 0.066667 
1.000000 -0.072750 0.066667 
0.988975 -0.035307 0.066667 
0.978215 -0.003668 0.066667 
0.967632 0.022892 0.066667 
0.946637 0.063669 0.066667 
0.925278 0.092813 0.066667 
0.902843 0.116117 0.066667 
0.866057 0.149209 0.066667 
0.825501 0.180245 0.066667 
0.781431 0.207278 0.066667 
0.733520 0.228730 0.066667 
0.679104 0.244498 0.066667 
0.614937 0.254848 0.066667 
0.539756 0.260001 0.066667 
0.460244 0.260001 0.066667 
0.385063 0.254848 0.066667 
0.320896 0.244498 0.066667 
0.266480 0.228730 0.066667 
0.218569 0.207278 0.066667 
0.174499 0.180245 0.066667 
0.133943 0.149209 0.066667 
0.097157 0.116117 0.066667 
0.074722 0.092813 0.066667 
0.053363 0.063669 0.066667 
0.032368 0.022892 0.066667 
0.021785 -0.003668 0.066667 
0.011025 -0.035307 0.066667 
0.000000 -0.072750 0.066667 
1.000000 -0.076084 0.066667 
0.988037 -0.047661 0.066667 
0.976844 -0.023645 0.066667 
0.966259 -0.003451 0.066667 
0.946275 0.027811 0.066667 
0.926804 0.050807 0.066667 
0.906562 0.070218 0.066667 
0.872693 0.099821 0.066667 
0.834319 0.129491 0.066667 
0.791552 0.156828 0.066667 
0.743897 0.179756 0.066667 
0.688432 0.197498 0.066667 
0.621627 0.209603 0.066667 
0.542195 0.215693 0.066667 
0.457805 0.215693 0.066667 
0.378373 0.209603 0.066667 
0.311568 0.197498 0.066667 
0.256103 0.179756 0.066667 
0.208448 0.156828 0.066667 
0.165681 0.129491 0.066667 
0.127307 0.099821 0.066667 
0.093438 0.070218 0.066667 
0.073196 0.050807 0.066667 
0.053725 0.027811 0.066667 
0.033741 -0.003451 0.066667 
0.023156 -0.023645 0.066667 
0.011963 -0.047661 0.066667 
0.000000 -0.076084 0.066667 
1.000000 -0.066084 0.100000 
0.990850 -0.010600 0.100000 
0.980958 0.036288 0.100000 
0.970376 0.075580 0.100000 
0.947360 0.135385 0.100000 
0.922228 0.176827 0.100000 
0.895405 0.207916 0.100000 
0.852785 0.247987 0.100000 
0.807865 0.281753 0.100000 
0.761190 0.308177 0.100000 
0.712765 0.326677 0.100000 
0.660448 0.338498 0.100000 
0.601555 0.345340 0.100000 
0.534880 0.348619 0.100000 
0.465120 0.348619 0.100000 
0.398445 0.345340 0.100000 
0.339552 0.338498 0.100000 
0.287235 0.326677 0.100000 
0.238810 0.308177 0.100000 
0.192135 0.281753 0.100000 
0.147215 0.247987 0.100000 
0.104595 0.207916 0.100000 
0.077772 0.176827 0.100000 
0.052640 0.135385 0.100000 
0.029624 0.075580 0.100000 
0.019042 0.036288 0.100000 
0.009150 -0.010600 0.100000 
0.000000 -0.066084 0.100000 
1.000000 -0.069417 0.100000 
0.989912 -0.022953 0.100000 
0.979586 0.016310 0.100000 
0.969004 0.049236 0.100000 
0.946999 0.099527 0.100000 
0.923753 0.134820 0.100000 
0.899124 0.162017 0.100000 
0.859421 0.198598 0.100000 
0.816683 0.230999 0.100000 
0.771310 0.257727 0.100000 
0.723143 0.277703 0.100000 
0.669776 0.291498 0.100000 
0.608246 0.300094 0.100000 
0.537318 0.304310 0.100000 
0.462682 0.304310 0.100000 
0.391754 0.300094 0.100000 
0.330224 0.291498 0.100000 
0.276857 0.277703 0.100000 
0.228690 0.257727 0.100000 
0.183317 0.230999 0.100000 
0.140579 0.198598 0.100000 
0.100876 0.162017 0.100000 
0.076247 0.134820 0.100000 
0.053001 0.099527 0.100000 
0.030996 0.049236 0.100000 
0.020414 0.016310 0.100000 
0.010088 -0.022953 0.100000 
0.000000 -0.069417 0.100000 
1.000000 -0.072750 0.100000 
0.988975 -0.035307 0.100000 
0.978215 -0.003668 0.100000 
0.967632 0.022892 0.100000 
0.946637 0.063669 0.100000 
0.925278 0.092813 0.100000 
0.902843 0.116117 0.100000 
0.866057 0.149209 0.100000 
0.825501 0.180245 0.100000 
0.781431 0.207278 0.100000 
0.733520 0.228730 0.100000 
0.679104 0.244498 0.100000 
0.614937 0.254848 0.100000 
0.539756 0.260001 0.100000 
0.460244 0.260001 0.100000 
0.385063 0.254848 0.100000 
0.320896 0.244498 0.100000 
0.266480 0.228730 0.100000 
0.218569 0.207278 0.100000 
0.174499 0.180245 0.100000 
0.133943 0.149209 0.100000 
0.097157 0.116117 0.100000 
0.074722 0.092813 0.100000 
0.053363 0.063669 0.100000 
0.032368 0.022892 0.100000 
0.021785 -0.003668 0.100000 
0.011025 -0.035307 0.100000 
0.000000 -0.072750 0.100000 
1.000000 -0.076084 0.100000 
0.988037 -0.047661 0.100000 
0.976844 -0.023645 0.100000 
0.966259 -0.003451 0.100000 
0.946275 0.027811 0.100000 
0.926804 0.050807 0.100000 
0.906562 0.070218 0.100000 
0.872693 0.099821 0.100000 
0.834319 0.129491 0.100000 
0.791552 0.156828 0.100000 
0.743897 0.179756 0.100000 
0.688432 0.197498 0.100000 
0.621627 0.209603 0.100000 
0.542195 0.215693 0.100000 
0.457805 0.215693 0.100000 
0.378373 0.209603 0.100000 
0.311568 0.197498 0.100000 
0.256103 0.179756 0.100000 
0.208448 0.156828 0.100000 
0.165681 0.129491 0.100000 
0.127307 0.099821 0.100000 
0.093438 0.070218 0.100000 
0.073196 0.050807 0.100000 
0.053725 0.027811 0.100000 
0.033741 -0.003451 0.100000 
0.023156 -0.023645 0.100000 
0.011963 -0.047661 0.100000 
0.000000 -0.076084 0.100000 
Zone T="FFD_vol1" I=10 J=2 K=2
DATAPACKING=POINT
1.738824 -0.939202 0.000000 
1.702713 -0.733473 0.000000 
1.641623 -0.626545 0.000000 
1.571906 -0.549706 0.000000 
1.494343 -0.440714 0.000000 
1.407966 -0.369415 0.000000 
1.313830 -0.318634 0.000000 
1.208218 -0.221039 0.000000 
1.094560 -0.174627 0.000000 
0.936045 -0.241622 0.000000 
1.729885 -0.951248 0.000000 
1.692311 -0.746322 0.000000 
1.628738 -0.640979 0.000000 
1.556255 -0.566227 0.000000 
1.475991 -0.459658 0.000000 
1.387328 -0.390810 0.000000 
1.291476 -0.342335 0.000000 
1.184835 -0.246838 0.000000 
1.070775 -0.201840 0.000000 
0.930086 -0.249652 0.000000 
1.738824 -0.939202 0.100000 
1.702713 -0.733473 0.100000 
1.641623 -0.626545 0.100000 
1.571906 -0.549706 0.100000 
1.494343 -0.440714 0.100000 
1.407966 -0.369415 0.100000 
1.313830 -0.318634 0.100000 
1.208218 -0.221039 0.100000 
1.094560 -0.174627 0.100000 
0.936045 -0.241622 0.100000 
1.729885 -0.951248 0.100000 
1.692311 -0.746322 0.100000 
1.628738 -0.640979 0.100000 
1.556255 -0.566227 0.100000 
1.475991 -0.459658 0.100000 
1.387328 -0.390810 0.100000 
1.291476 -0.342335 0.100000 
1.184835 -0.246838 0.100000 
1.070775 -0.201840 0.100000 
0.930086 -0.249652 0.100000 
Zone T="embedding_vol" I=28 J=4 K=4
DATAPACKING=POINT
1.738824 -0.939202 0.000000 
1.726990 -0.876075 0.000000 
1.715553 -0.823089 0.000000 
1.704497 -0.779104 0.000000 
1.683465 -0.713585 0.000000 
1.663766 -0.670410 0.000000 
1.645276 -0.640470 0.000000 
1.619418 -0.604859 0.000000 
1.594893 -0.574247 0.000000 
1.570598 -0.544347 0.000000 
1.545610 -0.512020 0.000000 
1.519714 -0.478708 0.000000 
1.492874 -0.446996 0.000000 
1.465067 -0.418936 0.000000 
1.436321 -0.394427 0.000000 
1.406673 -0.372835 0.000000 
1.376133 -0.353212 0.000000 
1.344594 -0.333376 0.000000 
1.311917 -0.310832 0.000000 
1.277659 -0.283963 0.000000 
1.240147 -0.254663 0.000000 
1.197405 -0.225702 0.000000 
1.164129 -0.208752 0.000000 
1.121665 -0.198816 0.000000 
1.064030 -0.201526 0.000000 
1.027654 -0.209383 0.000000 
0.985242 -0.222513 0.000000 
0.936045 -0.241622 0.000000 
1.735844 -0.943217 0.000000 
1.723851 -0.880179 0.000000 
1.712259 -0.827282 0.000000 
1.701054 -0.783385 0.000000 
1.679737 -0.718042 0.000000 
1.659773 -0.675038 0.000000 
1.641034 -0.645266 0.000000 
1.614831 -0.609899 0.000000 
1.589986 -0.579527 0.000000 
1.565385 -0.549873 0.000000 
1.540095 -0.517802 0.000000 
1.513903 -0.484754 0.000000 
1.486780 -0.453313 0.000000 
1.458704 -0.425523 0.000000 
1.429706 -0.401284 0.000000 
1.399825 -0.379958 0.000000 
1.369074 -0.360597 0.000000 
1.337346 -0.341016 0.000000 
1.304504 -0.318721 0.000000 
1.270105 -0.292094 0.000000 
1.232476 -0.263030 0.000000 
1.189635 -0.234303 0.000000 
1.156367 -0.217437 0.000000 
1.114313 -0.207148 0.000000 
1.057883 -0.208632 0.000000 
1.022531 -0.215413 0.000000 
0.981489 -0.227085 0.000000 
0.934058 -0.244298 0.000000 
1.732864 -0.947232 0.000000 
1.720711 -0.884284 0.000000 
1.708965 -0.831475 0.000000 
1.697610 -0.787667 0.000000 
1.676009 -0.722498 0.000000 
1.655780 -0.679666 0.000000 
1.636792 -0.650061 0.000000 
1.610245 -0.614938 0.000000 
1.585079 -0.584807 0.000000 
1.560171 -0.555399 0.000000 
1.534579 -0.523584 0.000000 
1.508093 -0.490801 0.000000 
1.480686 -0.459629 0.000000 
1.452341 -0.432110 0.000000 
1.423091 -0.408141 0.000000 
1.392977 -0.387082 0.000000 
1.362015 -0.367982 0.000000 
1.330098 -0.348657 0.000000 
1.297091 -0.326609 0.000000 
1.262552 -0.300224 0.000000 
1.224804 -0.271396 0.000000 
1.181864 -0.242904 0.000000 
1.148605 -0.226121 0.000000 
1.106960 -0.215480 0.000000 
1.051736 -0.215739 0.000000 
1.017408 -0.221443 0.000000 
0.977736 -0.231657 0.000000 
0.932072 -0.246975 0.000000 
1.729885 -0.951248 0.000000 
1.717572 -0.888389 0.000000 
1.705671 -0.835668 0.000000 
1.694167 -0.791949 0.000000 
1.672282 -0.726954 0.000000 
1.651786 -0.684294 0.000000 
1.632550 -0.654856 0.000000 
1.605658 -0.619977 0.000000 
1.580173 -0.590087 0.000000 
1.554958 -0.560924 0.000000 
1.529064 -0.529366 0.000000 
1.502283 -0.496847 0.000000 
1.474591 -0.465945 0.000000 
1.445978 -0.438697 0.000000 
1.416476 -0.414998 0.000000 
1.386130 -0.394205 0.000000 
1.354956 -0.375367 0.000000 
1.322850 -0.356297 0.000000 
1.289678 -0.334498 0.000000 
1.254998 -0.308354 0.000000 
1.217133 -0.279763 0.000000 
1.174093 -0.251504 0.000000 
1.140843 -0.234806 0.000000 
1.099608 -0.223812 0.000000 
1.045589 -0.222846 0.000000 
1.012285 -0.227473 0.000000 
0.973983 -0.236229 0.000000 
0.930086 -0.249652 0.000000 
1.738824 -0.939202 0.033333 
1.726990 -0.876075 0.033333 
1.715553 -0.823089 0.033333 
1.704497 -0.779104 0.033333 
1.683465 -0.713585 0.033333 
1.663766 -0.670410 0.033333 
1.645276 -0.640470 0.033333 
1.619418 -0.604859 0.033333 
1.594893 -0.574247 0.033333 
1.570598 -0.544347 0.033333 
1.545610 -0.512020 0.033333 
1.519714 -0.478708 0.033333 
1.492874 -0.446996 0.033333 
1.465067 -0.418936 0.033333 
1.436321 -0.394427 0.033333 
1.406673 -0.372835 0.033333 
1.376133 -0.353212 0.033333 
1.344594 -0.333376 0.033333 
1.311917 -0.310832 0.033333 
1.277659 -0.283963 0.033333 
1.240147 -0.254663 0.033333 
1.197405 -0.225702 0.033333 
1.164129 -0.208752 0.033333 
1.121665 -0.198816 0.033333 
1.064030 -0.201526 0.033333 
1.027654 -0.209383 0.033333 
0.985242 -0.222513 0.033333 
0.936045 -0.241622 0.033333 
1.735844 -0.943217 0.033333 
1.723851 -0.880179 0.033333 
1.712259 -0.827282 0.033333 
1.701054 -0.783385 0.033333 
1.679737 -0.718042 0.033333 
1.659773 -0.675038 0.033333 
1.641034 -0.645266 0.033333 
1.614831 -0.609899 0.033333 
1.589986 -0.579527 0.033333 
1.565385 -0.549873 0.033333 
1.540095 -0.517802 0.033333 
1.513903 -0.484754 0.033333 
1.486780 -0.453313 0.033333 
1.458704 -0.425523 0.033333 
1.429706 -0.401284 0.033333 
1.399825 -0.379958 0.033333 
1.369074 -0.360597 0.033333 
1.337346 -0.341016 0.033333 
1.304504 -0.318721 0.033333 
1.270105 -0.292094 0.033333 
1.232476 -0.263030 0.033333 
1.189635 -0.234303 0.033333 
1.156367 -0.217437 0.033333 
1.114313 -0.207148 0.033333 
1.057883 -0.208632 0.033333 
1.022531 -0.215413 0.033333 
0.981489 -0.227085 0.033333 
0.934058 -0.244298 0.033333 
1.732864 -0.947232 0.033333 
1.720711 -0.884284 0.033333 
1.708965 -0.831475 0.033333 
1.697610 -0.787667 0.033333 
1.676009 -0.722498 0.033333 
1.655780 -0.679666 0.033333 
1.636792 -0.650061 0.033333 
1.610245 -0.614938 0.033333 
1.585079 -0.584807 0.033333 
1.560171 -0.555399 0.033333 
1.534579 -0.523584 0.033333 
1.508093 -0.490801 0.033333 
1.480686 -0.459629 0.033333 
1.452341 -0.432110 0.033333 
1.423091 -0.408141 0.033333 
1.392977 -0.387082 0.033333 
1.362015 -0.367982 0.033333 
1.330098 -0.348657 0.033333 
1.297091 -0.326609 0.033333 
1.262552 -0.300224 0.033333 
1.224804 -0.271396 0.033333 
1.181864 -0.242904 0.033333 
1.148605 -0.226121 0.033333 
1.106960 -0.215480 0.033333 
1.051736 -0.215739 0.033333 
1.017408 -0.221443 0.033333 
0.977736 -0.231657 0.033333 
0.932072 -0.246975 0.033333 
1.729885 -0.951248 0.033333 
1.717572 -0.888389 0.033333 
1.705671 -0.835668 0.033333 
1.694167 -0.791949 0.033333 
1.672282 -0.726954 0.033333 
1.651786 -0.684294 0.033333 
1.632550 -0.654856 0.033333 
1.605658 -0.619977 0.033333 
1.580173 -0.590087 0.033333 
1.554958 -0.560924 0.033333 
1.529064 -0.529366 0.033333 
1.502283 -0.496847 0.033333 
1.474591 -0.465945 0.033333 
1.445978 -0.438697 0.033333 
1.416476 -0.414998 0.033333 
1.386130 -0.394205 0.033333 
1.354956 -0.375367 0.033333 
1.322850 -0.356297 0.033333 
1.289678 -0.334498 0.033333 
1.254998 -0.308354 0.033333 
1.217133 -0.279763 0.033333 
1.174093 -0.251504 0.033333 
1.140843 -0.234806 0.033333 
1.099608 -0.223812 0.033333 
1.045589 -0.222846 0.033333 
1.012285 -0.227473 0.033333 
0.973983 -0.236229 0.033333 
0.930086 -0.249652 0.033333 
1.738824 -0.939202 0.066667 
1.726990 -0.876075 0.066667 
1.715553 -0.823089 0.066667 
1.704497 -0.779104 0.066667 
1.683465 -0.713585 0.066667 
1.663766 -0.670410 0.066667 
1.645276 -0.640470 0.066667 
1.619418 -0.604859 0.066667 
1.594893 -0.574247 0.066667 
1.570598 -0.544347 0.066667 
1.545610 -0.512020 0.066667 
1.519714 -0.478708 0.066667 
1.492874 -0.446996 0.066667 
1.465067 -0.418936 0.066667 
1.436321 -0.394427 0.066667 
1.406673 -0.372835 0.066667 
1.376133 -0.353212 0.066667 
1.344594 -0.333376 0.066667 
1.311917 -0.310832 0.066667 
1.277659 -0.283963 0.066667 
1.240147 -0.254663 0.066667 
1.197405 -0.225702 0.066667 
1.164129 -0.208752 0.066667 
1.121665 -0.198816 0.066667 
1.064030 -0.201526 0.066667 
1.027654 -0.209383 0.066667 
0.985242 -0.222513 0.066667 
0.936045 -0.241622 0.066667 
1.735844 -0.943217 0.066667 
1.723851 -0.880179 0.066667 
1.712259 -0.827282 0.066667 
1.701054 -0.783385 0.066667 
1.679737 -0.718042 0.066667 
1.659773 -0.675038 0.066667 
1.641034 -0.645266 0.066667 
1.614831 -0.609899 0.066667 
1.589986 -0.579527 0.066667 
1.565385 -0.549873 0.066667 
1.540095 -0.517802 0.066667 
1.513903 -0.484754 0.066667 
1.486780 -0.453313 0.066667 
1.458704 -0.425523 0.066667 
1.429706 -0.401284 0.066667 
1.399825 -0.379958 0.066667 
1.369074 -0.360597 0.066667 
1.337346 -0.341016 0.066667 
1.304504 -0.318721 0.066667 
1.270105 -0.292094 0.066667 
1.232476 -0.263030 0.066667 
1.189635 -0.234303 0.066667 
1.156367 -0.217437 0.066667 
1.114313 -0.207148 0.066667 
1.057883 -0.208632 0.066667 
1.022531 -0.215413 0.066667 
0.981489 -0.227085 0.066667 
0.934058 -0.244298 0.066667 
1.732864 -0.947232 0.066667 
1.720711 -0.884284 0.066667 
1.708965 -0.831475 0.066667 
1.697610 -0.787667 0.066667 
1.676009 -0.722498 0.066667 
1.655780 -0.679666 0.066667 
1.636792 -0.650061 0.066667 
1.610245 -0.614938 0.066667 
1.585079 -0.584807 0.066667 
1.560171 -0.555399 0.066667 
1.534579 -0.523584 0.066667 
1.508093 -0.490801 0.066667 
1.480686 -0.459629 0.066667 
1.452341 -0.432110 0.066667 
1.423091 -0.408141 0.066667 
1.392977 -0.387082 0.066667 
1.362015 -0.367982 0.066667 
1.330098 -0.348657 0.066667 
1.297091 -0.326609 0.066667 
1.262552 -0.300224 0.066667 
1.224804 -0.271396 0.066667 
1.181864 -0.242904 0.066667 
1.148605 -0.226121 0.066667 
1.106960 -0.215480 0.066667 
1.051736 -0.215739 0.066667 
1.017408 -0.221443 0.066667 
0.977736 -0.231657 0.066667 
0.932072 -0.246975 0.066667 
1.729885 -0.951248 0.066667 
1.717572 -0.888389 0.066667 
1.705671 -0.835668 0.066667 
1.694167 -0.791949 0.066667 
1.672282 -0.726954 0.066667 
1.651786 -0.684294 0.066667 
1.632550 -0.654856 0.066667 
1.605658 -0.619977 0.066667 
1.580173 -0.590087 0.066667 
1.554958 -0.560924 0.066667 
1.529064 -0.529366 0.066667 
1.502283 -0.496847 0.066667 
1.474591 -0.465945 0.066667 
1.445978 -0.438697 0.066667 
1.416476 -0.414998 0.066667 
1.386130 -0.394205 0.066667 
1.354956 -0.375367 0.066667 
1.322850 -0.356297 0.066667 
1.289678 -0.334498 0.066667 
1.254998 -0.308354 0.066667 
1.217133 -0.279763 0.066667 
1.174093 -0.251504 0.066667 
1.140843 -0.234806 0.066667 
1.099608 -0.223812 0.066667 
1.045589 -0.222846 0.066667 
1.012285 -0.227473 0.066667 
0.973983 -0.236229 0.066667 
0.930086 -0.249652 0.066667 
1.738824 -0.939202 0.100000 
1.726990 -0.876075 0.100000 
1.715553 -0.823089 0.100000 
1.704497 -0.779104 0.100000 
1.683465 -0.713585 0.100000 
1.663766 -0.670410 0.100000 
1.645276 -0.640470 0.100000 
1.619418 -0.604859 0.100000 
1.594893 -0.574247 0.100000 
1.570598 -0.544347 0.100000 
1.545610 -0.512020 0.100000 
1.519714 -0.478708 0.100000 
1.492874 -0.446996 0.100000 
1.465067 -0.418936 0.100000 
1.436321 -0.394427 0.100000 
1.406673 -0.372835 0.100000 
1.376133 -0.353212 0.100000 
1.344594 -0.333376 0.100000 
1.311917 -0.310832 0.100000 
1.277659 -0.283963 0.100000 
1.240147 -0.254663 0.100000 
1.197405 -0.225702 0.100000 
1.164129 -0.208752 0.100000 
1.121665 -0.198816 0.100000 
1.064030 -0.201526 0.100000 
1.027654 -0.209383 0.100000 
0.985242 -0.222513 0.100000 
0.936045 -0.241622 0.100000 
1.735844 -0.943217 0.100000 
1.723851 -0.880179 0.100000 
1.712259 -0.827282 0.100000 
1.701054 -0.783385 0.100000 
1.679737 -0.718042 0.100000 
1.659773 -0.675038 0.100000 
1.641034 -0.645266 0.100000 
1.614831 -0.609899 0.100000 
1.589986 -0.579527 0.100000 
1.565385 -0.549873 0.100000 
1.540095 -0.517802 0.100000 
1.513903 -0.484754 0.100000 
1.486780 -0.453313 0.100000 
1.458704 -0.425523 0.100000 
1.429706 -0.401284 0.100000 
1.399825 -0.379958 0.100000 
1.369074 -0.360597 0.100000 
1.337346 -0.341016 0.100000 
1.304504 -0.318721 0.100000 
1.270105 -0.292094 0.100000 
1.232476 -0.263030 0.100000 
1.189635 -0.234303 0.100000 
1.156367 -0.217437 0.100000 
1.114313 -0.207148 0.100000 
1.057883 -0.208632 0.100000 
1.022531 -0.215413 0.100000 
0.981489 -0.227085 0.100000 
0.934058 -0.244298 0.100000 
1.732864 -0.947232 0.100000 
1.720711 -0.884284 0.100000 
1.708965 -0.831475 0.100000 
1.697610 -0.787667 0.100000 
1.676009 -0.722498 0.100000 
1.655780 -0.679666 0.100000 
1.636792 -0.650061 0.100000 
1.610245 -0.614938 0.100000 
1.585079 -0.584807 0.100000 
1.560171 -0.555399 0.100000 
1.534579 -0.523584 0.100000 
1.508093 -0.490801 0.100000 
1.480686 -0.459629 0.100000 
1.452341 -0.432110 0.100000 
1.423091 -0.408141 0.100000 
1.392977 -0.387082 0.100000 
1.362015 -0.367982 0.100000 
1.330098 -0.348657 0.100000 
1.297091 -0.326609 0.100000 
1.262552 -0.300224 0.100000 
1.224804 -0.271396 0.100000 
1.181864 -0.242904 0.100000 
1.148605 -0.226121 0.100000 
1.106960 -0.215480 0.100000 
1.051736 -0.215739 0.100000 
1.017408 -0.221443 0.100000 
0.977736 -0.231657 0.100000 
0.932072 -0.246975 0.100000 
1.729885 -0.951248 0.100000 
1.717572 -0.888389 0.100000 
1.705671 -0.835668 0.100000 
1.694167 -0.791949 0.100000 
1.672282 -0.726954 0.100000 
1.651786 -0.684294 0.100000 
1.632550 -0.654856 0.100000 
1.605658 -0.619977 0.100000 
1.580173 -0.590087 0.100000 
1.554958 -0.560924 0.100000 
1.529064 -0.529366 0.100000 
1.502283 -0.496847 0.100000 
1.474591 -0.465945 0.100000 
1.445978 -0.438697 0.100000 
1.416476 -0.414998 0.100000 
1.386130 -0.394205 0.100000 
1.354956 -0.375367 0.100000 
1.322850 -0.356297 0.100000 
1.289678 -0.334498 0.100000 
1.254998 -0.308354 0.100000 
1.217133 -0.279763 0.100000 
1.174093 -0.251504 0.100000 
1.140843 -0.234806 0.100000 
1.099608 -0.223812 0.100000 
1.045589 -0.222846 0.100000 
1.012285 -0.227473 0.100000 
0.973983 -0.236229 0.100000 
0.930086 -0.249652 0.100000 
