VARIABLES = "CoordinateX", "CoordinateY", "CoordinateZ"
Zone T="FFD_vol0" I=10 J=2 K=2
DATAPACKING=POINT
1.010000 0.070932 0.000000 
0.973716 0.086780 0.000000 
0.899672 0.191736 0.000000 
0.763006 0.252553 0.000000 
0.615441 0.286037 0.000000 
0.384559 0.286037 0.000000 
0.236994 0.252553 0.000000 
0.100328 0.191736 0.000000 
0.026284 0.086780 0.000000 
-0.010000 0.070932 0.000000 
1.010000 -0.096853 0.000000 
0.962798 0.041448 0.000000 
0.913486 0.089349 0.000000 
0.797974 0.185486 0.000000 
0.643930 0.261100 0.000000 
0.356070 0.261100 0.000000 
0.202026 0.185486 0.000000 
0.086514 0.089349 0.000000 
0.037202 0.041448 0.000000 
-0.010000 -0.096853 0.000000 
1.010000 0.070932 0.100000 
0.973716 0.086780 0.100000 
0.899672 0.191736 0.100000 
0.763006 0.252553 0.100000 
0.615441 0.286037 0.100000 
0.384559 0.286037 0.100000 
0.236994 0.252553 0.100000 
0.100328 0.191736 0.100000 
0.026284 0.086780 0.100000 
-0.010000 0.070932 0.100000 
1.010000 -0.096853 0.100000 
0.962798 0.041448 0.100000 
0.913486 0.089349 0.100000 
0.797974 0.185486 0.100000 
0.643930 0.261100 0.100000 
0.356070 0.261100 0.100000 
0.202026 0.185486 0.100000 
0.086514 0.089349 0.100000 
0.037202 0.041448 0.100000 
-0.010000 -0.096853 0.100000 
Zone T="embedding_vol" I=28 J=4 K=4
DATAPACKING=POINT
1.010000 0.070932 0.000000 
0.997873 0.077499 0.000000 
0.985663 0.086345 0.000000 
0.973339 0.097037 0.000000 
0.948238 0.122220 0.000000 
0.922338 0.149576 0.000000 
0.895405 0.175633 0.000000 
0.852785 0.207068 0.000000 
0.807865 0.230334 0.000000 
0.761190 0.247997 0.000000 
0.712765 0.262158 0.000000 
0.660448 0.273053 0.000000 
0.601555 0.280456 0.000000 
0.534880 0.284177 0.000000 
0.465120 0.284177 0.000000 
0.398445 0.280456 0.000000 
0.339552 0.273053 0.000000 
0.287235 0.262158 0.000000 
0.238810 0.247997 0.000000 
0.192135 0.230334 0.000000 
0.147215 0.207068 0.000000 
0.104595 0.175633 0.000000 
0.077662 0.149576 0.000000 
0.051762 0.122220 0.000000 
0.026661 0.097037 0.000000 
0.014337 0.086345 0.000000 
0.002127 0.077499 0.000000 
-0.010000 0.070932 0.000000 
1.010000 0.015004 0.000000 
0.996936 0.033391 0.000000 
0.984291 0.050799 0.000000 
0.971967 0.067264 0.000000 
0.947877 0.097504 0.000000 
0.923863 0.124395 0.000000 
0.899124 0.148221 0.000000 
0.859421 0.178868 0.000000 
0.816683 0.204415 0.000000 
0.771310 0.226020 0.000000 
0.723143 0.244509 0.000000 
0.669776 0.259380 0.000000 
0.608246 0.269803 0.000000 
0.537318 0.275084 0.000000 
0.462682 0.275084 0.000000 
0.391754 0.269803 0.000000 
0.330224 0.259380 0.000000 
0.276857 0.244509 0.000000 
0.228690 0.226020 0.000000 
0.183317 0.204415 0.000000 
0.140579 0.178868 0.000000 
0.100876 0.148221 0.000000 
0.076137 0.124395 0.000000 
0.052123 0.097504 0.000000 
0.028033 0.067264 0.000000 
0.015709 0.050799 0.000000 
0.003064 0.033391 0.000000 
-0.010000 0.015004 0.000000 
1.010000 -0.040925 0.000000 
0.995998 -0.010717 0.000000 
0.982920 0.015253 0.000000 
0.970595 0.037490 0.000000 
0.947515 0.072787 0.000000 
0.925388 0.099213 0.000000 
0.902843 0.120809 0.000000 
0.866057 0.150668 0.000000 
0.825501 0.178496 0.000000 
0.781431 0.204043 0.000000 
0.733520 0.226860 0.000000 
0.679104 0.245708 0.000000 
0.614937 0.259151 0.000000 
0.539756 0.265992 0.000000 
0.460244 0.265992 0.000000 
0.385063 0.259151 0.000000 
0.320896 0.245708 0.000000 
0.266480 0.226860 0.000000 
0.218569 0.204043 0.000000 
0.174499 0.178496 0.000000 
0.133943 0.150668 0.000000 
0.097157 0.120809 0.000000 
0.074612 0.099213 0.000000 
0.052485 0.072787 0.000000 
0.029405 0.037490 0.000000 
0.017080 0.015253 0.000000 
0.004002 -0.010717 0.000000 
-0.010000 -0.040925 0.000000 
1.010000 -0.096853 0.000000 
0.995061 -0.054825 0.000000 
0.981549 -0.020294 0.000000 
0.969222 0.007717 0.000000 
0.947153 0.048070 0.000000 
0.926913 0.074032 0.000000 
0.906562 0.093397 0.000000 
0.872693 0.122467 0.000000 
0.834319 0.152577 0.000000 
0.791552 0.182066 0.000000 
0.743897 0.209210 0.000000 
0.688432 0.232035 0.000000 
0.621627 0.248498 0.000000 
0.542195 0.256899 0.000000 
0.457805 0.256899 0.000000 
0.378373 0.248498 0.000000 
0.311568 0.232035 0.000000 
0.256103 0.209210 0.000000 
0.208448 0.182066 0.000000 
0.165681 0.152577 0.000000 
0.127307 0.122467 0.000000 
0.093438 0.093397 0.000000 
0.073087 0.074032 0.000000 
0.052847 0.048070 0.000000 
0.030778 0.007717 0.000000 
0.018451 -0.020294 0.000000 
0.004939 -0.054825 0.000000 
-0.010000 -0.096853 0.000000 
1.010000 0.070932 0.033333 
0.997873 0.077499 0.033333 
0.985663 0.086345 0.033333 
0.973339 0.097037 0.033333 
0.948238 0.122220 0.033333 
0.922338 0.149576 0.033333 
0.895405 0.175633 0.033333 
0.852785 0.207068 0.033333 
0.807865 0.230334 0.033333 
0.761190 0.247997 0.033333 
0.712765 0.262158 0.033333 
0.660448 0.273053 0.033333 
0.601555 0.280456 0.033333 
0.534880 0.284177 0.033333 
0.465120 0.284177 0.033333 
0.398445 0.280456 0.033333 
0.339552 0.273053 0.033333 
0.287235 0.262158 0.033333 
0.238810 0.247997 0.033333 
0.192135 0.230334 0.033333 
0.147215 0.207068 0.033333 
0.104595 0.175633 0.033333 
0.077662 0.149576 0.033333 
0.051762 0.122220 0.033333 
0.026661 0.097037 0.033333 
0.014337 0.086345 0.033333 
0.002127 0.077499 0.033333 
-0.010000 0.070932 0.033333 
1.010000 0.015004 0.033333 
0.996936 0.033391 0.033333 
0.984291 0.050799 0.033333 
0.971967 0.067264 0.033333 
0.947877 0.097504 0.033333 
0.923863 0.124395 0.033333 
0.899124 0.148221 0.033333 
0.859421 0.178868 0.033333 
0.816683 0.204415 0.033333 
0.771310 0.226020 0.033333 
0.723143 0.244509 0.033333 
0.669776 0.259380 0.033333 
0.608246 0.269803 0.033333 
0.537318 0.275084 0.033333 
0.462682 0.275084 0.033333 
0.391754 0.269803 0.033333 
0.330224 0.259380 0.033333 
0.276857 0.244509 0.033333 
0.228690 0.226020 0.033333 
0.183317 0.204415 0.033333 
0.140579 0.178868 0.033333 
0.100876 0.148221 0.033333 
0.076137 0.124395 0.033333 
0.052123 0.097504 0.033333 
0.028033 0.067264 0.033333 
0.015709 0.050799 0.033333 
0.003064 0.033391 0.033333 
-0.010000 0.015004 0.033333 
1.010000 -0.040925 0.033333 
0.995998 -0.010717 0.033333 
0.982920 0.015253 0.033333 
0.970595 0.037490 0.033333 
0.947515 0.072787 0.033333 
0.925388 0.099213 0.033333 
0.902843 0.120809 0.033333 
0.866057 0.150668 0.033333 
0.825501 0.178496 0.033333 
0.781431 0.204043 0.033333 
0.733520 0.226860 0.033333 
0.679104 0.245708 0.033333 
0.614937 0.259151 0.033333 
0.539756 0.265992 0.033333 
0.460244 0.265992 0.033333 
0.385063 0.259151 0.033333 
0.320896 0.245708 0.033333 
0.266480 0.226860 0.033333 
0.218569 0.204043 0.033333 
0.174499 0.178496 0.033333 
0.133943 0.150668 0.033333 
0.097157 0.120809 0.033333 
0.074612 0.099213 0.033333 
0.052485 0.072787 0.033333 
0.029405 0.037490 0.033333 
0.017080 0.015253 0.033333 
0.004002 -0.010717 0.033333 
-0.010000 -0.040925 0.033333 
1.010000 -0.096853 0.033333 
0.995061 -0.054825 0.033333 
0.981549 -0.020294 0.033333 
0.969222 0.007717 0.033333 
0.947153 0.048070 0.033333 
0.926913 0.074032 0.033333 
0.906562 0.093397 0.033333 
0.872693 0.122467 0.033333 
0.834319 0.152577 0.033333 
0.791552 0.182066 0.033333 
0.743897 0.209210 0.033333 
0.688432 0.232035 0.033333 
0.621627 0.248498 0.033333 
0.542195 0.256899 0.033333 
0.457805 0.256899 0.033333 
0.378373 0.248498 0.033333 
0.311568 0.232035 0.033333 
0.256103 0.209210 0.033333 
0.208448 0.182066 0.033333 
0.165681 0.152577 0.033333 
0.127307 0.122467 0.033333 
0.093438 0.093397 0.033333 
0.073087 0.074032 0.033333 
0.052847 0.048070 0.033333 
0.030778 0.007717 0.033333 
0.018451 -0.020294 0.033333 
0.004939 -0.054825 0.033333 
-0.010000 -0.096853 0.033333 
1.010000 0.070932 0.066667 
0.997873 0.077499 0.066667 
0.985663 0.086345 0.066667 
0.973339 0.097037 0.066667 
0.948238 0.122220 0.066667 
0.922338 0.149576 0.066667 
0.895405 0.175633 0.066667 
0.852785 0.207068 0.066667 
0.807865 0.230334 0.066667 
0.761190 0.247997 0.066667 
0.712765 0.262158 0.066667 
0.660448 0.273053 0.066667 
0.601555 0.280456 0.066667 
0.534880 0.284177 0.066667 
0.465120 0.284177 0.066667 
0.398445 0.280456 0.066667 
0.339552 0.273053 0.066667 
0.287235 0.262158 0.066667 
0.238810 0.247997 0.066667 
0.192135 0.230334 0.066667 
0.147215 0.207068 0.066667 
0.104595 0.175633 0.066667 
0.077662 0.149576 0.066667 
0.051762 0.122220 0.066667 
0.026661 0.097037 0.066667 
0.014337 0.086345 0.066667 
0.002127 0.077499 0.066667 
-0.010000 0.070932 0.066667 
1.010000 0.015004 0.066667 
0.996936 0.033391 0.066667 
0.984291 0.050799 0.066667 
0.971967 0.067264 0.066667 
0.947877 0.097504 0.066667 
0.923863 0.124395 0.066667 
0.899124 0.148221 0.066667 
0.859421 0.178868 0.066667 
0.816683 0.204415 0.066667 
0.771310 0.226020 0.066667 
0.723143 0.244509 0.066667 
0.669776 0.259380 0.066667 
0.608246 0.269803 0.066667 
0.537318 0.275084 0.066667 
0.462682 0.275084 0.066667 
0.391754 0.269803 0.066667 
0.330224 0.259380 0.066667 
0.276857 0.244509 0.066667 
0.228690 0.226020 0.066667 
0.183317 0.204415 0.066667 
0.140579 0.178868 0.066667 
0.100876 0.148221 0.066667 
0.076137 0.124395 0.066667 
0.052123 0.097504 0.066667 
0.028033 0.067264 0.066667 
0.015709 0.050799 0.066667 
0.003064 0.033391 0.066667 
-0.010000 0.015004 0.066667 
1.010000 -0.040925 0.066667 
0.995998 -0.010717 0.066667 
0.982920 0.015253 0.066667 
0.970595 0.037490 0.066667 
0.947515 0.072787 0.066667 
0.925388 0.099213 0.066667 
0.902843 0.120809 0.066667 
0.866057 0.150668 0.066667 
0.825501 0.178496 0.066667 
0.781431 0.204043 0.066667 
0.733520 0.226860 0.066667 
0.679104 0.245708 0.066667 
0.614937 0.259151 0.066667 
0.539756 0.265992 0.066667 
0.460244 0.265992 0.066667 
0.385063 0.259151 0.066667 
0.320896 0.245708 0.066667 
0.266480 0.226860 0.066667 
0.218569 0.204043 0.066667 
0.174499 0.178496 0.066667 
0.133943 0.150668 0.066667 
0.097157 0.120809 0.066667 
0.074612 0.099213 0.066667 
0.052485 0.072787 0.066667 
0.029405 0.037490 0.066667 
0.017080 0.015253 0.066667 
0.004002 -0.010717 0.066667 
-0.010000 -0.040925 0.066667 
1.010000 -0.096853 0.066667 
0.995061 -0.054825 0.066667 
0.981549 -0.020294 0.066667 
0.969222 0.007717 0.066667 
0.947153 0.048070 0.066667 
0.926913 0.074032 0.066667 
0.906562 0.093397 0.066667 
0.872693 0.122467 0.066667 
0.834319 0.152577 0.066667 
0.791552 0.182066 0.066667 
0.743897 0.209210 0.066667 
0.688432 0.232035 0.066667 
0.621627 0.248498 0.066667 
0.542195 0.256899 0.066667 
0.457805 0.256899 0.066667 
0.378373 0.248498 0.066667 
0.311568 0.232035 0.066667 
0.256103 0.209210 0.066667 
0.208448 0.182066 0.066667 
0.165681 0.152577 0.066667 
0.127307 0.122467 0.066667 
0.093438 0.093397 0.066667 
0.073087 0.074032 0.066667 
0.052847 0.048070 0.066667 
0.030778 0.007717 0.066667 
0.018451 -0.020294 0.066667 
0.004939 -0.054825 0.066667 
-0.010000 -0.096853 0.066667 
1.010000 0.070932 0.100000 
0.997873 0.077499 0.100000 
0.985663 0.086345 0.100000 
0.973339 0.097037 0.100000 
0.948238 0.122220 0.100000 
0.922338 0.149576 0.100000 
0.895405 0.175633 0.100000 
0.852785 0.207068 0.100000 
0.807865 0.230334 0.100000 
0.761190 0.247997 0.100000 
0.712765 0.262158 0.100000 
0.660448 0.273053 0.100000 
0.601555 0.280456 0.100000 
0.534880 0.284177 0.100000 
0.465120 0.284177 0.100000 
0.398445 0.280456 0.100000 
0.339552 0.273053 0.100000 
0.287235 0.262158 0.100000 
0.238810 0.247997 0.100000 
0.192135 0.230334 0.100000 
0.147215 0.207068 0.100000 
0.104595 0.175633 0.100000 
0.077662 0.149576 0.100000 
0.051762 0.122220 0.100000 
0.026661 0.097037 0.100000 
0.014337 0.086345 0.100000 
0.002127 0.077499 0.100000 
-0.010000 0.070932 0.100000 
1.010000 0.015004 0.100000 
0.996936 0.033391 0.100000 
0.984291 0.050799 0.100000 
0.971967 0.067264 0.100000 
0.947877 0.097504 0.100000 
0.923863 0.124395 0.100000 
0.899124 0.148221 0.100000 
0.859421 0.178868 0.100000 
0.816683 0.204415 0.100000 
0.771310 0.226020 0.100000 
0.723143 0.244509 0.100000 
0.669776 0.259380 0.100000 
0.608246 0.269803 0.100000 
0.537318 0.275084 0.100000 
0.462682 0.275084 0.100000 
0.391754 0.269803 0.100000 
0.330224 0.259380 0.100000 
0.276857 0.244509 0.100000 
0.228690 0.226020 0.100000 
0.183317 0.204415 0.100000 
0.140579 0.178868 0.100000 
0.100876 0.148221 0.100000 
0.076137 0.124395 0.100000 
0.052123 0.097504 0.100000 
0.028033 0.067264 0.100000 
0.015709 0.050799 0.100000 
0.003064 0.033391 0.100000 
-0.010000 0.015004 0.100000 
1.010000 -0.040925 0.100000 
0.995998 -0.010717 0.100000 
0.982920 0.015253 0.100000 
0.970595 0.037490 0.100000 
0.947515 0.072787 0.100000 
0.925388 0.099213 0.100000 
0.902843 0.120809 0.100000 
0.866057 0.150668 0.100000 
0.825501 0.178496 0.100000 
0.781431 0.204043 0.100000 
0.733520 0.226860 0.100000 
0.679104 0.245708 0.100000 
0.614937 0.259151 0.100000 
0.539756 0.265992 0.100000 
0.460244 0.265992 0.100000 
0.385063 0.259151 0.100000 
0.320896 0.245708 0.100000 
0.266480 0.226860 0.100000 
0.218569 0.204043 0.100000 
0.174499 0.178496 0.100000 
0.133943 0.150668 0.100000 
0.097157 0.120809 0.100000 
0.074612 0.099213 0.100000 
0.052485 0.072787 0.100000 
0.029405 0.037490 0.100000 
0.017080 0.015253 0.100000 
0.004002 -0.010717 0.100000 
-0.010000 -0.040925 0.100000 
1.010000 -0.096853 0.100000 
0.995061 -0.054825 0.100000 
0.981549 -0.020294 0.100000 
0.969222 0.007717 0.100000 
0.947153 0.048070 0.100000 
0.926913 0.074032 0.100000 
0.906562 0.093397 0.100000 
0.872693 0.122467 0.100000 
0.834319 0.152577 0.100000 
0.791552 0.182066 0.100000 
0.743897 0.209210 0.100000 
0.688432 0.232035 0.100000 
0.621627 0.248498 0.100000 
0.542195 0.256899 0.100000 
0.457805 0.256899 0.100000 
0.378373 0.248498 0.100000 
0.311568 0.232035 0.100000 
0.256103 0.209210 0.100000 
0.208448 0.182066 0.100000 
0.165681 0.152577 0.100000 
0.127307 0.122467 0.100000 
0.093438 0.093397 0.100000 
0.073087 0.074032 0.100000 
0.052847 0.048070 0.100000 
0.030778 0.007717 0.100000 
0.018451 -0.020294 0.100000 
0.004939 -0.054825 0.100000 
-0.010000 -0.096853 0.100000 
Zone T="FFD_vol1" I=10 J=2 K=2
DATAPACKING=POINT
1.803062 -0.742283 0.000000 
1.770258 -0.669964 0.000000 
1.748228 -0.571255 0.000000 
1.684246 -0.477268 0.000000 
1.593420 -0.390103 0.000000 
1.513049 -0.311069 0.000000 
1.395116 -0.242441 0.000000 
1.309968 -0.194210 0.000000 
1.141182 -0.167735 0.000000 
0.982629 -0.170536 0.000000 
1.794455 -0.754569 0.000000 
1.848003 -0.683094 0.000000 
1.759137 -0.586036 0.000000 
1.664721 -0.494209 0.000000 
1.571645 -0.409539 0.000000 
1.489092 -0.333017 0.000000 
1.361851 -0.266740 0.000000 
1.241151 -0.220634 0.000000 
1.105543 -0.195592 0.000000 
0.976891 -0.178725 0.000000 
1.803062 -0.742283 0.100000 
1.770258 -0.669964 0.100000 
1.748228 -0.571255 0.100000 
1.684246 -0.477268 0.100000 
1.593420 -0.390103 0.100000 
1.513049 -0.311069 0.100000 
1.395116 -0.242441 0.100000 
1.309968 -0.194210 0.100000 
1.141182 -0.167735 0.100000 
0.982629 -0.170536 0.100000 
1.794455 -0.754569 0.100000 
1.848003 -0.683094 0.100000 
1.759137 -0.586036 0.100000 
1.664721 -0.494209 0.100000 
1.571645 -0.409539 0.100000 
1.489092 -0.333017 0.100000 
1.361851 -0.266740 0.100000 
1.241151 -0.220634 0.100000 
1.105543 -0.195592 0.100000 
0.976891 -0.178725 0.100000 
Zone T="embedding_vol" I=28 J=4 K=4
DATAPACKING=POINT
1.803062 -0.742283 0.000000 
1.792897 -0.719008 0.000000 
1.784125 -0.697320 0.000000 
1.776523 -0.677102 0.000000 
1.763943 -0.640623 0.000000 
1.753384 -0.608651 0.000000 
1.743072 -0.580268 0.000000 
1.725207 -0.542639 0.000000 
1.704057 -0.509268 0.000000 
1.679772 -0.478405 0.000000 
1.652709 -0.448600 0.000000 
1.624046 -0.419602 0.000000 
1.595163 -0.391458 0.000000 
1.566914 -0.364224 0.000000 
1.538049 -0.337978 0.000000 
1.506789 -0.312803 0.000000 
1.472086 -0.288833 0.000000 
1.435814 -0.266388 0.000000 
1.400580 -0.245840 0.000000 
1.367315 -0.227423 0.000000 
1.330255 -0.210833 0.000000 
1.281963 -0.195629 0.000000 
1.239715 -0.186229 0.000000 
1.186131 -0.178211 0.000000 
1.118171 -0.172539 0.000000 
1.077851 -0.170884 0.000000 
1.032797 -0.170176 0.000000 
0.982629 -0.170536 0.000000 
1.800193 -0.746379 0.000000 
1.798204 -0.723197 0.000000 
1.795011 -0.701602 0.000000 
1.790752 -0.681477 0.000000 
1.779592 -0.645179 0.000000 
1.765834 -0.613386 0.000000 
1.750587 -0.585177 0.000000 
1.726669 -0.547801 0.000000 
1.701537 -0.514680 0.000000 
1.674829 -0.484071 0.000000 
1.646415 -0.454530 0.000000 
1.617097 -0.425804 0.000000 
1.587908 -0.397938 0.000000 
1.559400 -0.370982 0.000000 
1.530189 -0.345012 0.000000 
1.498407 -0.320110 0.000000 
1.462894 -0.296407 0.000000 
1.425313 -0.274223 0.000000 
1.388034 -0.253927 0.000000 
1.352020 -0.235756 0.000000 
1.312617 -0.219405 0.000000 
1.263764 -0.204439 0.000000 
1.222742 -0.195122 0.000000 
1.171767 -0.186741 0.000000 
1.107782 -0.179812 0.000000 
1.069954 -0.177052 0.000000 
1.027726 -0.174849 0.000000 
0.980716 -0.173266 0.000000 
1.797324 -0.750474 0.000000 
1.803511 -0.727386 0.000000 
1.805898 -0.705883 0.000000 
1.804982 -0.685851 0.000000 
1.795241 -0.649736 0.000000 
1.778283 -0.618121 0.000000 
1.758102 -0.590087 0.000000 
1.728131 -0.552964 0.000000 
1.699018 -0.520091 0.000000 
1.669887 -0.489736 0.000000 
1.640121 -0.460459 0.000000 
1.610147 -0.432006 0.000000 
1.580653 -0.404417 0.000000 
1.551885 -0.377739 0.000000 
1.522328 -0.352046 0.000000 
1.490026 -0.327417 0.000000 
1.453703 -0.303981 0.000000 
1.414813 -0.282057 0.000000 
1.375488 -0.262014 0.000000 
1.336725 -0.244088 0.000000 
1.294978 -0.227977 0.000000 
1.245565 -0.213248 0.000000 
1.205768 -0.204015 0.000000 
1.157404 -0.195272 0.000000 
1.097393 -0.187084 0.000000 
1.062057 -0.183221 0.000000 
1.022656 -0.179522 0.000000 
0.978804 -0.175996 0.000000 
1.794455 -0.754569 0.000000 
1.808818 -0.731575 0.000000 
1.816784 -0.710165 0.000000 
1.819212 -0.690225 0.000000 
1.810890 -0.654292 0.000000 
1.790733 -0.622856 0.000000 
1.765617 -0.594996 0.000000 
1.729593 -0.558126 0.000000 
1.696499 -0.525503 0.000000 
1.664944 -0.495402 0.000000 
1.633827 -0.466389 0.000000 
1.603198 -0.438209 0.000000 
1.573399 -0.410897 0.000000 
1.544371 -0.384497 0.000000 
1.514468 -0.359080 0.000000 
1.481644 -0.334724 0.000000 
1.444512 -0.311555 0.000000 
1.404312 -0.289891 0.000000 
1.362941 -0.270102 0.000000 
1.321430 -0.252420 0.000000 
1.277340 -0.236549 0.000000 
1.227366 -0.222058 0.000000 
1.188794 -0.212909 0.000000 
1.143040 -0.203802 0.000000 
1.087003 -0.194357 0.000000 
1.054161 -0.189389 0.000000 
1.017586 -0.184195 0.000000 
0.976891 -0.178725 0.000000 
1.803062 -0.742283 0.033333 
1.792897 -0.719008 0.033333 
1.784125 -0.697320 0.033333 
1.776523 -0.677102 0.033333 
1.763943 -0.640623 0.033333 
1.753384 -0.608651 0.033333 
1.743072 -0.580268 0.033333 
1.725207 -0.542639 0.033333 
1.704057 -0.509268 0.033333 
1.679772 -0.478405 0.033333 
1.652709 -0.448600 0.033333 
1.624046 -0.419602 0.033333 
1.595163 -0.391458 0.033333 
1.566914 -0.364224 0.033333 
1.538049 -0.337978 0.033333 
1.506789 -0.312803 0.033333 
1.472086 -0.288833 0.033333 
1.435814 -0.266388 0.033333 
1.400580 -0.245840 0.033333 
1.367315 -0.227423 0.033333 
1.330255 -0.210833 0.033333 
1.281963 -0.195629 0.033333 
1.239715 -0.186229 0.033333 
1.186131 -0.178211 0.033333 
1.118171 -0.172539 0.033333 
1.077851 -0.170884 0.033333 
1.032797 -0.170176 0.033333 
0.982629 -0.170536 0.033333 
1.800193 -0.746379 0.033333 
1.798204 -0.723197 0.033333 
1.795011 -0.701602 0.033333 
1.790752 -0.681477 0.033333 
1.779592 -0.645179 0.033333 
1.765834 -0.613386 0.033333 
1.750587 -0.585177 0.033333 
1.726669 -0.547801 0.033333 
1.701537 -0.514680 0.033333 
1.674829 -0.484071 0.033333 
1.646415 -0.454530 0.033333 
1.617097 -0.425804 0.033333 
1.587908 -0.397938 0.033333 
1.559400 -0.370982 0.033333 
1.530189 -0.345012 0.033333 
1.498407 -0.320110 0.033333 
1.462894 -0.296407 0.033333 
1.425313 -0.274223 0.033333 
1.388034 -0.253927 0.033333 
1.352020 -0.235756 0.033333 
1.312617 -0.219405 0.033333 
1.263764 -0.204439 0.033333 
1.222742 -0.195122 0.033333 
1.171767 -0.186741 0.033333 
1.107782 -0.179812 0.033333 
1.069954 -0.177052 0.033333 
1.027726 -0.174849 0.033333 
0.980716 -0.173266 0.033333 
1.797324 -0.750474 0.033333 
1.803511 -0.727386 0.033333 
1.805898 -0.705883 0.033333 
1.804982 -0.685851 0.033333 
1.795241 -0.649736 0.033333 
1.778283 -0.618121 0.033333 
1.758102 -0.590087 0.033333 
1.728131 -0.552964 0.033333 
1.699018 -0.520091 0.033333 
1.669887 -0.489736 0.033333 
1.640121 -0.460459 0.033333 
1.610147 -0.432006 0.033333 
1.580653 -0.404417 0.033333 
1.551885 -0.377739 0.033333 
1.522328 -0.352046 0.033333 
1.490026 -0.327417 0.033333 
1.453703 -0.303981 0.033333 
1.414813 -0.282057 0.033333 
1.375488 -0.262014 0.033333 
1.336725 -0.244088 0.033333 
1.294978 -0.227977 0.033333 
1.245565 -0.213248 0.033333 
1.205768 -0.204015 0.033333 
1.157404 -0.195272 0.033333 
1.097393 -0.187084 0.033333 
1.062057 -0.183221 0.033333 
1.022656 -0.179522 0.033333 
0.978804 -0.175996 0.033333 
1.794455 -0.754569 0.033333 
1.808818 -0.731575 0.033333 
1.816784 -0.710165 0.033333 
1.819212 -0.690225 0.033333 
1.810890 -0.654292 0.033333 
1.790733 -0.622856 0.033333 
1.765617 -0.594996 0.033333 
1.729593 -0.558126 0.033333 
1.696499 -0.525503 0.033333 
1.664944 -0.495402 0.033333 
1.633827 -0.466389 0.033333 
1.603198 -0.438209 0.033333 
1.573399 -0.410897 0.033333 
1.544371 -0.384497 0.033333 
1.514468 -0.359080 0.033333 
1.481644 -0.334724 0.033333 
1.444512 -0.311555 0.033333 
1.404312 -0.289891 0.033333 
1.362941 -0.270102 0.033333 
1.321430 -0.252420 0.033333 
1.277340 -0.236549 0.033333 
1.227366 -0.222058 0.033333 
1.188794 -0.212909 0.033333 
1.143040 -0.203802 0.033333 
1.087003 -0.194357 0.033333 
1.054161 -0.189389 0.033333 
1.017586 -0.184195 0.033333 
0.976891 -0.178725 0.033333 
1.803062 -0.742283 0.066667 
1.792897 -0.719008 0.066667 
1.784125 -0.697320 0.066667 
1.776523 -0.677102 0.066667 
1.763943 -0.640623 0.066667 
1.753384 -0.608651 0.066667 
1.743072 -0.580268 0.066667 
1.725207 -0.542639 0.066667 
1.704057 -0.509268 0.066667 
1.679772 -0.478405 0.066667 
1.652709 -0.448600 0.066667 
1.624046 -0.419602 0.066667 
1.595163 -0.391458 0.066667 
1.566914 -0.364224 0.066667 
1.538049 -0.337978 0.066667 
1.506789 -0.312803 0.066667 
1.472086 -0.288833 0.066667 
1.435814 -0.266388 0.066667 
1.400580 -0.245840 0.066667 
1.367315 -0.227423 0.066667 
1.330255 -0.210833 0.066667 
1.281963 -0.195629 0.066667 
1.239715 -0.186229 0.066667 
1.186131 -0.178211 0.066667 
1.118171 -0.172539 0.066667 
1.077851 -0.170884 0.066667 
1.032797 -0.170176 0.066667 
0.982629 -0.170536 0.066667 
1.800193 -0.746379 0.066667 
1.798204 -0.723197 0.066667 
1.795011 -0.701602 0.066667 
1.790752 -0.681477 0.066667 
1.779592 -0.645179 0.066667 
1.765834 -0.613386 0.066667 
1.750587 -0.585177 0.066667 
1.726669 -0.547801 0.066667 
1.701537 -0.514680 0.066667 
1.674829 -0.484071 0.066667 
1.646415 -0.454530 0.066667 
1.617097 -0.425804 0.066667 
1.587908 -0.397938 0.066667 
1.559400 -0.370982 0.066667 
1.530189 -0.345012 0.066667 
1.498407 -0.320110 0.066667 
1.462894 -0.296407 0.066667 
1.425313 -0.274223 0.066667 
1.388034 -0.253927 0.066667 
1.352020 -0.235756 0.066667 
1.312617 -0.219405 0.066667 
1.263764 -0.204439 0.066667 
1.222742 -0.195122 0.066667 
1.171767 -0.186741 0.066667 
1.107782 -0.179812 0.066667 
1.069954 -0.177052 0.066667 
1.027726 -0.174849 0.066667 
0.980716 -0.173266 0.066667 
1.797324 -0.750474 0.066667 
1.803511 -0.727386 0.066667 
1.805898 -0.705883 0.066667 
1.804982 -0.685851 0.066667 
1.795241 -0.649736 0.066667 
1.778283 -0.618121 0.066667 
1.758102 -0.590087 0.066667 
1.728131 -0.552964 0.066667 
1.699018 -0.520091 0.066667 
1.669887 -0.489736 0.066667 
1.640121 -0.460459 0.066667 
1.610147 -0.432006 0.066667 
1.580653 -0.404417 0.066667 
1.551885 -0.377739 0.066667 
1.522328 -0.352046 0.066667 
1.490026 -0.327417 0.066667 
1.453703 -0.303981 0.066667 
1.414813 -0.282057 0.066667 
1.375488 -0.262014 0.066667 
1.336725 -0.244088 0.066667 
1.294978 -0.227977 0.066667 
1.245565 -0.213248 0.066667 
1.205768 -0.204015 0.066667 
1.157404 -0.195272 0.066667 
1.097393 -0.187084 0.066667 
1.062057 -0.183221 0.066667 
1.022656 -0.179522 0.066667 
0.978804 -0.175996 0.066667 
1.794455 -0.754569 0.066667 
1.808818 -0.731575 0.066667 
1.816784 -0.710165 0.066667 
1.819212 -0.690225 0.066667 
1.810890 -0.654292 0.066667 
1.790733 -0.622856 0.066667 
1.765617 -0.594996 0.066667 
1.729593 -0.558126 0.066667 
1.696499 -0.525503 0.066667 
1.664944 -0.495402 0.066667 
1.633827 -0.466389 0.066667 
1.603198 -0.438209 0.066667 
1.573399 -0.410897 0.066667 
1.544371 -0.384497 0.066667 
1.514468 -0.359080 0.066667 
1.481644 -0.334724 0.066667 
1.444512 -0.311555 0.066667 
1.404312 -0.289891 0.066667 
1.362941 -0.270102 0.066667 
1.321430 -0.252420 0.066667 
1.277340 -0.236549 0.066667 
1.227366 -0.222058 0.066667 
1.188794 -0.212909 0.066667 
1.143040 -0.203802 0.066667 
1.087003 -0.194357 0.066667 
1.054161 -0.189389 0.066667 
1.017586 -0.184195 0.066667 
0.976891 -0.178725 0.066667 
1.803062 -0.742283 0.100000 
1.792897 -0.719008 0.100000 
1.784125 -0.697320 0.100000 
1.776523 -0.677102 0.100000 
1.763943 -0.640623 0.100000 
1.753384 -0.608651 0.100000 
1.743072 -0.580268 0.100000 
1.725207 -0.542639 0.100000 
1.704057 -0.509268 0.100000 
1.679772 -0.478405 0.100000 
1.652709 -0.448600 0.100000 
1.624046 -0.419602 0.100000 
1.595163 -0.391458 0.100000 
1.566914 -0.364224 0.100000 
1.538049 -0.337978 0.100000 
1.506789 -0.312803 0.100000 
1.472086 -0.288833 0.100000 
1.435814 -0.266388 0.100000 
1.400580 -0.245840 0.100000 
1.367315 -0.227423 0.100000 
1.330255 -0.210833 0.100000 
1.281963 -0.195629 0.100000 
1.239715 -0.186229 0.100000 
1.186131 -0.178211 0.100000 
1.118171 -0.172539 0.100000 
1.077851 -0.170884 0.100000 
1.032797 -0.170176 0.100000 
0.982629 -0.170536 0.100000 
1.800193 -0.746379 0.100000 
1.798204 -0.723197 0.100000 
1.795011 -0.701602 0.100000 
1.790752 -0.681477 0.100000 
1.779592 -0.645179 0.100000 
1.765834 -0.613386 0.100000 
1.750587 -0.585177 0.100000 
1.726669 -0.547801 0.100000 
1.701537 -0.514680 0.100000 
1.674829 -0.484071 0.100000 
1.646415 -0.454530 0.100000 
1.617097 -0.425804 0.100000 
1.587908 -0.397938 0.100000 
1.559400 -0.370982 0.100000 
1.530189 -0.345012 0.100000 
1.498407 -0.320110 0.100000 
1.462894 -0.296407 0.100000 
1.425313 -0.274223 0.100000 
1.388034 -0.253927 0.100000 
1.352020 -0.235756 0.100000 
1.312617 -0.219405 0.100000 
1.263764 -0.204439 0.100000 
1.222742 -0.195122 0.100000 
1.171767 -0.186741 0.100000 
1.107782 -0.179812 0.100000 
1.069954 -0.177052 0.100000 
1.027726 -0.174849 0.100000 
0.980716 -0.173266 0.100000 
1.797324 -0.750474 0.100000 
1.803511 -0.727386 0.100000 
1.805898 -0.705883 0.100000 
1.804982 -0.685851 0.100000 
1.795241 -0.649736 0.100000 
1.778283 -0.618121 0.100000 
1.758102 -0.590087 0.100000 
1.728131 -0.552964 0.100000 
1.699018 -0.520091 0.100000 
1.669887 -0.489736 0.100000 
1.640121 -0.460459 0.100000 
1.610147 -0.432006 0.100000 
1.580653 -0.404417 0.100000 
1.551885 -0.377739 0.100000 
1.522328 -0.352046 0.100000 
1.490026 -0.327417 0.100000 
1.453703 -0.303981 0.100000 
1.414813 -0.282057 0.100000 
1.375488 -0.262014 0.100000 
1.336725 -0.244088 0.100000 
1.294978 -0.227977 0.100000 
1.245565 -0.213248 0.100000 
1.205768 -0.204015 0.100000 
1.157404 -0.195272 0.100000 
1.097393 -0.187084 0.100000 
1.062057 -0.183221 0.100000 
1.022656 -0.179522 0.100000 
0.978804 -0.175996 0.100000 
1.794455 -0.754569 0.100000 
1.808818 -0.731575 0.100000 
1.816784 -0.710165 0.100000 
1.819212 -0.690225 0.100000 
1.810890 -0.654292 0.100000 
1.790733 -0.622856 0.100000 
1.765617 -0.594996 0.100000 
1.729593 -0.558126 0.100000 
1.696499 -0.525503 0.100000 
1.664944 -0.495402 0.100000 
1.633827 -0.466389 0.100000 
1.603198 -0.438209 0.100000 
1.573399 -0.410897 0.100000 
1.544371 -0.384497 0.100000 
1.514468 -0.359080 0.100000 
1.481644 -0.334724 0.100000 
1.444512 -0.311555 0.100000 
1.404312 -0.289891 0.100000 
1.362941 -0.270102 0.100000 
1.321430 -0.252420 0.100000 
1.277340 -0.236549 0.100000 
1.227366 -0.222058 0.100000 
1.188794 -0.212909 0.100000 
1.143040 -0.203802 0.100000 
1.087003 -0.194357 0.100000 
1.054161 -0.189389 0.100000 
1.017586 -0.184195 0.100000 
0.976891 -0.178725 0.100000 
