VARIABLES = "CoordinateX", "CoordinateY", "CoordinateZ"
Zone T="FFD_vol0" I=10 J=2 K=2
DATAPACKING=POINT
1.000000 0.019968 0.000000 
0.973716 0.078832 0.000000 
0.899672 0.176752 0.000000 
0.763006 0.283488 0.000000 
0.615441 0.344182 0.000000 
0.384559 0.344877 0.000000 
0.236994 0.283005 0.000000 
0.100328 0.177048 0.000000 
0.026284 0.085925 0.000000 
0.000000 0.006144 0.000000 
1.000000 -0.007868 0.000000 
0.962798 -0.024915 0.000000 
0.913486 0.030236 0.000000 
0.797974 0.127488 0.000000 
0.643930 0.213469 0.000000 
0.356070 0.213414 0.000000 
0.202026 0.126353 0.000000 
0.086514 0.027519 0.000000 
0.037202 -0.013902 0.000000 
0.000000 -0.008405 0.000000 
1.000000 0.013935 0.100000 
0.973716 0.082737 0.100000 
0.899672 0.176094 0.100000 
0.763006 0.283082 0.100000 
0.615441 0.344328 0.100000 
0.384559 0.344708 0.100000 
0.236994 0.283028 0.100000 
0.100328 0.176887 0.100000 
0.026284 0.083273 0.100000 
0.000000 0.007405 0.100000 
1.000000 -0.011722 0.100000 
0.962798 -0.016738 0.100000 
0.913486 0.028778 0.100000 
0.797974 0.126776 0.100000 
0.643930 0.213378 0.100000 
0.356070 0.213244 0.100000 
0.202026 0.126375 0.100000 
0.086514 0.027359 0.100000 
0.037202 -0.016554 0.100000 
0.000000 -0.007143 0.100000 
Zone T="embedding_vol" I=28 J=4 K=4
DATAPACKING=POINT
1.000000 0.019968 0.000000 
0.990850 0.039227 0.000000 
0.980958 0.057779 0.000000 
0.970376 0.075650 0.000000 
0.947360 0.109455 0.000000 
0.922228 0.140855 0.000000 
0.895405 0.170061 0.000000 
0.852785 0.210064 0.000000 
0.807865 0.245388 0.000000 
0.761190 0.275814 0.000000 
0.712765 0.301075 0.000000 
0.660448 0.320703 0.000000 
0.601555 0.334182 0.000000 
0.534880 0.341065 0.000000 
0.465120 0.341185 0.000000 
0.398445 0.334449 0.000000 
0.339552 0.320891 0.000000 
0.287235 0.301066 0.000000 
0.238810 0.275658 0.000000 
0.192135 0.245319 0.000000 
0.147215 0.210578 0.000000 
0.104595 0.171927 0.000000 
0.077772 0.143889 0.000000 
0.052640 0.112417 0.000000 
0.029624 0.075596 0.000000 
0.019042 0.054581 0.000000 
0.009150 0.031510 0.000000 
0.000000 0.006144 0.000000 
1.000000 0.010690 0.000000 
0.989912 0.022166 0.000000 
0.979586 0.034157 0.000000 
0.969004 0.046565 0.000000 
0.946999 0.072237 0.000000 
0.923753 0.098397 0.000000 
0.899124 0.124260 0.000000 
0.859421 0.161143 0.000000 
0.816683 0.195126 0.000000 
0.771310 0.225746 0.000000 
0.723143 0.252404 0.000000 
0.669776 0.273966 0.000000 
0.608246 0.289165 0.000000 
0.537318 0.296931 0.000000 
0.462682 0.296992 0.000000 
0.391754 0.289270 0.000000 
0.330224 0.273936 0.000000 
0.276857 0.252129 0.000000 
0.228690 0.225235 0.000000 
0.183317 0.194564 0.000000 
0.140579 0.161120 0.000000 
0.100876 0.125830 0.000000 
0.076247 0.101552 0.000000 
0.053001 0.076030 0.000000 
0.030996 0.048428 0.000000 
0.020414 0.033585 0.000000 
0.010088 0.017909 0.000000 
0.000000 0.001295 0.000000 
1.000000 0.001411 0.000000 
0.988975 0.005105 0.000000 
0.978215 0.010536 0.000000 
0.967632 0.017481 0.000000 
0.946637 0.035019 0.000000 
0.925278 0.055939 0.000000 
0.902843 0.078458 0.000000 
0.866057 0.112222 0.000000 
0.825501 0.144865 0.000000 
0.781431 0.175678 0.000000 
0.733520 0.203732 0.000000 
0.679104 0.227228 0.000000 
0.614937 0.244147 0.000000 
0.539756 0.252798 0.000000 
0.460244 0.252798 0.000000 
0.385063 0.244092 0.000000 
0.320896 0.226980 0.000000 
0.266480 0.203192 0.000000 
0.218569 0.174813 0.000000 
0.174499 0.143809 0.000000 
0.133943 0.111662 0.000000 
0.097157 0.079733 0.000000 
0.074722 0.059215 0.000000 
0.053363 0.039642 0.000000 
0.032368 0.021259 0.000000 
0.021785 0.012589 0.000000 
0.011025 0.004308 0.000000 
0.000000 -0.003555 0.000000 
1.000000 -0.007868 0.000000 
0.988037 -0.011956 0.000000 
0.976844 -0.013085 0.000000 
0.966259 -0.011604 0.000000 
0.946275 -0.002199 0.000000 
0.926804 0.013481 0.000000 
0.906562 0.032657 0.000000 
0.872693 0.063301 0.000000 
0.834319 0.094604 0.000000 
0.791552 0.125609 0.000000 
0.743897 0.155061 0.000000 
0.688432 0.180491 0.000000 
0.621627 0.199130 0.000000 
0.542195 0.208665 0.000000 
0.457805 0.208605 0.000000 
0.378373 0.198913 0.000000 
0.311568 0.180024 0.000000 
0.256103 0.154255 0.000000 
0.208448 0.124391 0.000000 
0.165681 0.093053 0.000000 
0.127307 0.062204 0.000000 
0.093438 0.033636 0.000000 
0.073196 0.016878 0.000000 
0.053725 0.003255 0.000000 
0.033741 -0.005910 0.000000 
0.023156 -0.008407 0.000000 
0.011963 -0.009294 0.000000 
0.000000 -0.008405 0.000000 
1.000000 0.017957 0.033333 
0.990850 0.038176 0.033333 
0.980958 0.057422 0.033333 
0.970376 0.075759 0.033333 
0.947360 0.109960 0.033333 
0.922228 0.141284 0.033333 
0.895405 0.170236 0.033333 
0.852785 0.209990 0.033333 
0.807865 0.245244 0.033333 
0.761190 0.275695 0.033333 
0.712765 0.301004 0.033333 
0.660448 0.320677 0.033333 
0.601555 0.334182 0.033333 
0.534880 0.341065 0.033333 
0.465120 0.341170 0.033333 
0.398445 0.334421 0.033333 
0.339552 0.320864 0.033333 
0.287235 0.301047 0.033333 
0.238810 0.275645 0.033333 
0.192135 0.245293 0.033333 
0.147215 0.210485 0.033333 
0.104595 0.171676 0.033333 
0.077772 0.143484 0.033333 
0.052640 0.111927 0.033333 
0.029624 0.075215 0.033333 
0.019042 0.054366 0.033333 
0.009150 0.031557 0.033333 
0.000000 0.006564 0.033333 
1.000000 0.008921 0.033333 
0.989912 0.021416 0.033333 
0.979586 0.034129 0.033333 
0.969004 0.047002 0.033333 
0.946999 0.073009 0.033333 
0.923753 0.098990 0.033333 
0.899124 0.124496 0.033333 
0.859421 0.161043 0.033333 
0.816683 0.194933 0.033333 
0.771310 0.225585 0.033333 
0.723143 0.252299 0.033333 
0.669776 0.273911 0.033333 
0.608246 0.289142 0.033333 
0.537318 0.296915 0.033333 
0.462682 0.296967 0.033333 
0.391754 0.289238 0.033333 
0.330224 0.273907 0.033333 
0.276857 0.252110 0.033333 
0.228690 0.225222 0.033333 
0.183317 0.194538 0.033333 
0.140579 0.161027 0.033333 
0.100876 0.125579 0.033333 
0.076247 0.101147 0.033333 
0.053001 0.075540 0.033333 
0.030996 0.048046 0.033333 
0.020414 0.033370 0.033333 
0.010088 0.017956 0.033333 
0.000000 0.001715 0.033333 
1.000000 -0.000116 0.033333 
0.988975 0.004657 0.033333 
0.978215 0.010836 0.033333 
0.967632 0.018246 0.033333 
0.946637 0.036059 0.033333 
0.925278 0.056695 0.033333 
0.902843 0.078756 0.033333 
0.866057 0.112095 0.033333 
0.825501 0.144623 0.033333 
0.781431 0.175475 0.033333 
0.733520 0.203594 0.033333 
0.679104 0.227145 0.033333 
0.614937 0.244101 0.033333 
0.539756 0.252765 0.033333 
0.460244 0.252763 0.033333 
0.385063 0.244055 0.033333 
0.320896 0.226950 0.033333 
0.266480 0.203172 0.033333 
0.218569 0.174800 0.033333 
0.174499 0.143782 0.033333 
0.133943 0.111569 0.033333 
0.097157 0.079482 0.033333 
0.074722 0.058810 0.033333 
0.053363 0.039152 0.033333 
0.032368 0.020877 0.033333 
0.021785 0.012373 0.033333 
0.011025 0.004354 0.033333 
0.000000 -0.003135 0.033333 
1.000000 -0.009153 0.033333 
0.988037 -0.012103 0.033333 
0.976844 -0.012457 0.033333 
0.966259 -0.010511 0.033333 
0.946275 -0.000892 0.033333 
0.926804 0.014401 0.033333 
0.906562 0.033015 0.033333 
0.872693 0.063148 0.033333 
0.834319 0.094313 0.033333 
0.791552 0.125365 0.033333 
0.743897 0.154889 0.033333 
0.688432 0.180379 0.033333 
0.621627 0.199061 0.033333 
0.542195 0.208615 0.033333 
0.457805 0.208560 0.033333 
0.378373 0.198871 0.033333 
0.311568 0.179993 0.033333 
0.256103 0.154235 0.033333 
0.208448 0.124377 0.033333 
0.165681 0.093027 0.033333 
0.127307 0.062111 0.033333 
0.093438 0.033385 0.033333 
0.073196 0.016474 0.033333 
0.053725 0.002765 0.033333 
0.033741 -0.006292 0.033333 
0.023156 -0.008623 0.033333 
0.011963 -0.009247 0.033333 
0.000000 -0.007984 0.033333 
1.000000 0.015946 0.066667 
0.990850 0.037124 0.066667 
0.980958 0.057065 0.066667 
0.970376 0.075869 0.066667 
0.947360 0.110465 0.066667 
0.922228 0.141712 0.066667 
0.895405 0.170411 0.066667 
0.852785 0.209916 0.066667 
0.807865 0.245100 0.066667 
0.761190 0.275577 0.066667 
0.712765 0.300933 0.066667 
0.660448 0.320651 0.066667 
0.601555 0.334183 0.066667 
0.534880 0.341065 0.066667 
0.465120 0.341156 0.066667 
0.398445 0.334393 0.066667 
0.339552 0.320836 0.066667 
0.287235 0.301028 0.066667 
0.238810 0.275631 0.066667 
0.192135 0.245267 0.066667 
0.147215 0.210393 0.066667 
0.104595 0.171425 0.066667 
0.077772 0.143080 0.066667 
0.052640 0.111437 0.066667 
0.029624 0.074833 0.066667 
0.019042 0.054150 0.066667 
0.009150 0.031604 0.066667 
0.000000 0.006985 0.066667 
1.000000 0.007152 0.066667 
0.989912 0.020666 0.066667 
0.979586 0.034100 0.066667 
0.969004 0.047440 0.066667 
0.946999 0.073781 0.066667 
0.923753 0.099582 0.066667 
0.899124 0.124732 0.066667 
0.859421 0.160942 0.066667 
0.816683 0.194741 0.066667 
0.771310 0.225425 0.066667 
0.723143 0.252195 0.066667 
0.669776 0.273857 0.066667 
0.608246 0.289119 0.066667 
0.537318 0.296898 0.066667 
0.462682 0.296942 0.066667 
0.391754 0.289205 0.066667 
0.330224 0.273878 0.066667 
0.276857 0.252091 0.066667 
0.228690 0.225209 0.066667 
0.183317 0.194512 0.066667 
0.140579 0.160935 0.066667 
0.100876 0.125328 0.066667 
0.076247 0.100743 0.066667 
0.053001 0.075050 0.066667 
0.030996 0.047664 0.066667 
0.020414 0.033154 0.066667 
0.010088 0.018002 0.066667 
0.000000 0.002135 0.066667 
1.000000 -0.001643 0.066667 
0.988975 0.004208 0.066667 
0.978215 0.011135 0.066667 
0.967632 0.019011 0.066667 
0.946637 0.037098 0.066667 
0.925278 0.057452 0.066667 
0.902843 0.079053 0.066667 
0.866057 0.111969 0.066667 
0.825501 0.144381 0.066667 
0.781431 0.175273 0.066667 
0.733520 0.203456 0.066667 
0.679104 0.227062 0.066667 
0.614937 0.244055 0.066667 
0.539756 0.252732 0.066667 
0.460244 0.252729 0.066667 
0.385063 0.244018 0.066667 
0.320896 0.226920 0.066667 
0.266480 0.203153 0.066667 
0.218569 0.174786 0.066667 
0.174499 0.143756 0.066667 
0.133943 0.111477 0.066667 
0.097157 0.079231 0.066667 
0.074722 0.058406 0.066667 
0.053363 0.038662 0.066667 
0.032368 0.020495 0.066667 
0.021785 0.012158 0.066667 
0.011025 0.004401 0.066667 
0.000000 -0.002714 0.066667 
1.000000 -0.010437 0.066667 
0.988037 -0.012250 0.066667 
0.976844 -0.011830 0.066667 
0.966259 -0.009418 0.066667 
0.946275 0.000415 0.066667 
0.926804 0.015322 0.066667 
0.906562 0.033374 0.066667 
0.872693 0.062995 0.066667 
0.834319 0.094022 0.066667 
0.791552 0.125121 0.066667 
0.743897 0.154717 0.066667 
0.688432 0.180268 0.066667 
0.621627 0.198991 0.066667 
0.542195 0.208565 0.066667 
0.457805 0.208515 0.066667 
0.378373 0.198830 0.066667 
0.311568 0.179961 0.066667 
0.256103 0.154216 0.066667 
0.208448 0.124364 0.066667 
0.165681 0.093001 0.066667 
0.127307 0.062019 0.066667 
0.093438 0.033134 0.066667 
0.073196 0.016069 0.066667 
0.053725 0.002275 0.066667 
0.033741 -0.006674 0.066667 
0.023156 -0.008838 0.066667 
0.011963 -0.009201 0.066667 
0.000000 -0.007564 0.066667 
1.000000 0.013935 0.100000 
0.990850 0.036072 0.100000 
0.980958 0.056708 0.100000 
0.970376 0.075978 0.100000 
0.947360 0.110969 0.100000 
0.922228 0.142141 0.100000 
0.895405 0.170586 0.100000 
0.852785 0.209842 0.100000 
0.807865 0.244956 0.100000 
0.761190 0.275458 0.100000 
0.712765 0.300862 0.100000 
0.660448 0.320624 0.100000 
0.601555 0.334183 0.100000 
0.534880 0.341066 0.100000 
0.465120 0.341141 0.100000 
0.398445 0.334365 0.100000 
0.339552 0.320809 0.100000 
0.287235 0.301009 0.100000 
0.238810 0.275618 0.100000 
0.192135 0.245241 0.100000 
0.147215 0.210300 0.100000 
0.104595 0.171174 0.100000 
0.077772 0.142675 0.100000 
0.052640 0.110947 0.100000 
0.029624 0.074451 0.100000 
0.019042 0.053935 0.100000 
0.009150 0.031650 0.100000 
0.000000 0.007405 0.100000 
1.000000 0.005382 0.100000 
0.989912 0.019916 0.100000 
0.979586 0.034071 0.100000 
0.969004 0.047877 0.100000 
0.946999 0.074554 0.100000 
0.923753 0.100175 0.100000 
0.899124 0.124968 0.100000 
0.859421 0.160842 0.100000 
0.816683 0.194548 0.100000 
0.771310 0.225264 0.100000 
0.723143 0.252090 0.100000 
0.669776 0.273802 0.100000 
0.608246 0.289096 0.100000 
0.537318 0.296882 0.100000 
0.462682 0.296917 0.100000 
0.391754 0.289173 0.100000 
0.330224 0.273849 0.100000 
0.276857 0.252072 0.100000 
0.228690 0.225196 0.100000 
0.183317 0.194485 0.100000 
0.140579 0.160842 0.100000 
0.100876 0.125077 0.100000 
0.076247 0.100339 0.100000 
0.053001 0.074559 0.100000 
0.030996 0.047282 0.100000 
0.020414 0.032939 0.100000 
0.010088 0.018049 0.100000 
0.000000 0.002556 0.100000 
1.000000 -0.003170 0.100000 
0.988975 0.003760 0.100000 
0.978215 0.011435 0.100000 
0.967632 0.019776 0.100000 
0.946637 0.038138 0.100000 
0.925278 0.058208 0.100000 
0.902843 0.079350 0.100000 
0.866057 0.111842 0.100000 
0.825501 0.144139 0.100000 
0.781431 0.175071 0.100000 
0.733520 0.203318 0.100000 
0.679104 0.226980 0.100000 
0.614937 0.244009 0.100000 
0.539756 0.252698 0.100000 
0.460244 0.252694 0.100000 
0.385063 0.243981 0.100000 
0.320896 0.226890 0.100000 
0.266480 0.203134 0.100000 
0.218569 0.174773 0.100000 
0.174499 0.143730 0.100000 
0.133943 0.111384 0.100000 
0.097157 0.078980 0.100000 
0.074722 0.058002 0.100000 
0.053363 0.038172 0.100000 
0.032368 0.020113 0.100000 
0.021785 0.011942 0.100000 
0.011025 0.004447 0.100000 
0.000000 -0.002294 0.100000 
1.000000 -0.011722 0.100000 
0.988037 -0.012397 0.100000 
0.976844 -0.011202 0.100000 
0.966259 -0.008325 0.100000 
0.946275 0.001722 0.100000 
0.926804 0.016242 0.100000 
0.906562 0.033732 0.100000 
0.872693 0.062842 0.100000 
0.834319 0.093731 0.100000 
0.791552 0.124877 0.100000 
0.743897 0.154545 0.100000 
0.688432 0.180157 0.100000 
0.621627 0.198922 0.100000 
0.542195 0.208515 0.100000 
0.457805 0.208470 0.100000 
0.378373 0.198788 0.100000 
0.311568 0.179930 0.100000 
0.256103 0.154196 0.100000 
0.208448 0.124351 0.100000 
0.165681 0.092975 0.100000 
0.127307 0.061926 0.100000 
0.093438 0.032883 0.100000 
0.073196 0.015665 0.100000 
0.053725 0.001785 0.100000 
0.033741 -0.007055 0.100000 
0.023156 -0.009054 0.100000 
0.011963 -0.009154 0.100000 
0.000000 -0.007143 0.100000 
Zone T="FFD_vol1" I=10 J=2 K=2
DATAPACKING=POINT
1.826510 -0.691316 0.000000 
1.785912 -0.530217 0.000000 
1.722109 -0.492934 0.000000 
1.649963 -0.399367 0.000000 
1.569752 -0.311794 0.000000 
1.481569 -0.232844 0.000000 
1.385428 -0.164990 0.000000 
1.277994 -0.116171 0.000000 
1.163139 -0.080896 0.000000 
1.005936 -0.096282 0.000000 
1.817906 -0.697243 0.000000 
1.775868 -0.543220 0.000000 
1.709626 -0.507491 0.000000 
1.634772 -0.416238 0.000000 
1.551928 -0.331238 0.000000 
1.461527 -0.254515 0.000000 
1.363735 -0.188806 0.000000 
1.255330 -0.141956 0.000000 
1.140111 -0.117026 0.000000 
1.000200 -0.112753 0.000000 
1.826510 -0.685699 0.100000 
1.785912 -0.571112 0.100000 
1.722109 -0.493193 0.100000 
1.649963 -0.399257 0.100000 
1.569752 -0.311956 0.100000 
1.481569 -0.232972 0.100000 
1.385428 -0.164696 0.100000 
1.277994 -0.116160 0.100000 
1.163139 -0.085716 0.100000 
1.005936 -0.092328 0.100000 
1.817906 -0.691626 0.100000 
1.775868 -0.584115 0.100000 
1.709626 -0.507751 0.100000 
1.634772 -0.416129 0.100000 
1.551928 -0.331400 0.100000 
1.461527 -0.254880 0.100000 
1.363735 -0.188817 0.100000 
1.255330 -0.142745 0.100000 
1.140111 -0.117574 0.100000 
1.000200 -0.106620 0.100000 
Zone T="embedding_vol" I=28 J=4 K=4
DATAPACKING=POINT
1.826510 -0.691316 0.000000 
1.813293 -0.642689 0.000000 
1.800681 -0.603389 0.000000 
1.788635 -0.572194 0.000000 
1.766081 -0.529220 0.000000 
1.745320 -0.503973 0.000000 
1.726036 -0.486660 0.000000 
1.699174 -0.459923 0.000000 
1.673759 -0.430619 0.000000 
1.648619 -0.400366 0.000000 
1.622778 -0.370525 0.000000 
1.596045 -0.341448 0.000000 
1.568423 -0.313231 0.000000 
1.539915 -0.285971 0.000000 
1.510521 -0.259762 0.000000 
1.480242 -0.234693 0.000000 
1.449059 -0.210891 0.000000 
1.416868 -0.188617 0.000000 
1.383546 -0.168163 0.000000 
1.348659 -0.149632 0.000000 
1.310533 -0.132360 0.000000 
1.267186 -0.115489 0.000000 
1.233529 -0.104454 0.000000 
1.190811 -0.095437 0.000000 
1.133176 -0.090656 0.000000 
1.096933 -0.090547 0.000000 
1.054764 -0.092330 0.000000 
1.005936 -0.096282 0.000000 
1.823642 -0.693292 0.000000 
1.810268 -0.645376 0.000000 
1.797504 -0.606650 0.000000 
1.785310 -0.575907 0.000000 
1.762478 -0.533543 0.000000 
1.741455 -0.508629 0.000000 
1.721927 -0.491512 0.000000 
1.694728 -0.465033 0.000000 
1.668999 -0.435990 0.000000 
1.643559 -0.406004 0.000000 
1.617424 -0.376438 0.000000 
1.590404 -0.347638 0.000000 
1.562505 -0.319693 0.000000 
1.533735 -0.292694 0.000000 
1.504097 -0.266736 0.000000 
1.473593 -0.241912 0.000000 
1.442206 -0.218352 0.000000 
1.409833 -0.196314 0.000000 
1.376352 -0.176092 0.000000 
1.341332 -0.157814 0.000000 
1.303095 -0.140958 0.000000 
1.259655 -0.124837 0.000000 
1.226009 -0.114462 0.000000 
1.183691 -0.105733 0.000000 
1.127226 -0.100274 0.000000 
1.091977 -0.099279 0.000000 
1.051138 -0.099711 0.000000 
1.004024 -0.101772 0.000000 
1.820774 -0.695267 0.000000 
1.807242 -0.648063 0.000000 
1.794326 -0.609910 0.000000 
1.781986 -0.579619 0.000000 
1.758874 -0.537865 0.000000 
1.737591 -0.513286 0.000000 
1.717819 -0.496363 0.000000 
1.690282 -0.470143 0.000000 
1.664240 -0.441361 0.000000 
1.638500 -0.411642 0.000000 
1.612070 -0.382351 0.000000 
1.584762 -0.353828 0.000000 
1.556587 -0.326155 0.000000 
1.527555 -0.299417 0.000000 
1.497673 -0.273710 0.000000 
1.466944 -0.249131 0.000000 
1.435353 -0.225812 0.000000 
1.402798 -0.204011 0.000000 
1.369159 -0.184020 0.000000 
1.334005 -0.165997 0.000000 
1.295656 -0.149557 0.000000 
1.252124 -0.134184 0.000000 
1.218489 -0.124470 0.000000 
1.176571 -0.116029 0.000000 
1.121277 -0.109893 0.000000 
1.087022 -0.108011 0.000000 
1.047512 -0.107091 0.000000 
1.002112 -0.107262 0.000000 
1.817906 -0.697243 0.000000 
1.804217 -0.650750 0.000000 
1.791149 -0.613170 0.000000 
1.778661 -0.583331 0.000000 
1.755271 -0.542188 0.000000 
1.733726 -0.517942 0.000000 
1.713711 -0.501215 0.000000 
1.685836 -0.475252 0.000000 
1.659480 -0.446732 0.000000 
1.633440 -0.417280 0.000000 
1.606716 -0.388264 0.000000 
1.579120 -0.360018 0.000000 
1.550669 -0.332617 0.000000 
1.521376 -0.306140 0.000000 
1.491249 -0.280684 0.000000 
1.460295 -0.256350 0.000000 
1.428499 -0.233272 0.000000 
1.395763 -0.211708 0.000000 
1.361966 -0.191949 0.000000 
1.326678 -0.174179 0.000000 
1.288218 -0.158156 0.000000 
1.244593 -0.143532 0.000000 
1.210969 -0.134478 0.000000 
1.169451 -0.126326 0.000000 
1.115328 -0.119512 0.000000 
1.082067 -0.116743 0.000000 
1.043887 -0.114471 0.000000 
1.000200 -0.112753 0.000000 
1.826510 -0.689443 0.033333 
1.813293 -0.645194 0.033333 
1.800681 -0.608834 0.033333 
1.788635 -0.579350 0.033333 
1.766081 -0.536958 0.033333 
1.745320 -0.509914 0.033333 
1.726036 -0.490112 0.033333 
1.699174 -0.460967 0.033333 
1.673759 -0.430759 0.033333 
1.648619 -0.400365 0.033333 
1.622778 -0.370529 0.033333 
1.596045 -0.341468 0.033333 
1.568423 -0.313268 0.033333 
1.539915 -0.286016 0.033333 
1.510521 -0.259801 0.033333 
1.480242 -0.234714 0.033333 
1.449059 -0.210882 0.033333 
1.416868 -0.188576 0.033333 
1.383546 -0.168104 0.033333 
1.348659 -0.149591 0.033333 
1.310533 -0.132441 0.033333 
1.267186 -0.115872 0.033333 
1.233529 -0.105128 0.033333 
1.190811 -0.096245 0.033333 
1.133176 -0.091171 0.033333 
1.096933 -0.090672 0.033333 
1.054764 -0.091855 0.033333 
1.005936 -0.094964 0.033333 
1.823642 -0.691419 0.033333 
1.810268 -0.647881 0.033333 
1.797504 -0.612094 0.033333 
1.785310 -0.583062 0.033333 
1.762478 -0.541281 0.033333 
1.741455 -0.514570 0.033333 
1.721927 -0.494964 0.033333 
1.694728 -0.466077 0.033333 
1.668999 -0.436130 0.033333 
1.643559 -0.406003 0.033333 
1.617424 -0.376442 0.033333 
1.590404 -0.347659 0.033333 
1.562505 -0.319735 0.033333 
1.533735 -0.292749 0.033333 
1.504097 -0.266792 0.033333 
1.473593 -0.241957 0.033333 
1.442206 -0.218371 0.033333 
1.409833 -0.196307 0.033333 
1.376352 -0.176074 0.033333 
1.341332 -0.157823 0.033333 
1.303095 -0.141066 0.033333 
1.259655 -0.125159 0.033333 
1.226009 -0.114972 0.033333 
1.183691 -0.106274 0.033333 
1.127226 -0.100462 0.033333 
1.091977 -0.099075 0.033333 
1.051138 -0.098933 0.033333 
1.004024 -0.100212 0.033333 
1.820774 -0.693395 0.033333 
1.807242 -0.650568 0.033333 
1.794326 -0.615354 0.033333 
1.781986 -0.586775 0.033333 
1.758874 -0.545603 0.033333 
1.737591 -0.519226 0.033333 
1.717819 -0.499815 0.033333 
1.690282 -0.471187 0.033333 
1.664240 -0.441501 0.033333 
1.638500 -0.411641 0.033333 
1.612070 -0.382355 0.033333 
1.584762 -0.353851 0.033333 
1.556587 -0.326201 0.033333 
1.527555 -0.299482 0.033333 
1.497673 -0.273783 0.033333 
1.466944 -0.249199 0.033333 
1.435353 -0.225859 0.033333 
1.402798 -0.204038 0.033333 
1.369159 -0.184045 0.033333 
1.334005 -0.166054 0.033333 
1.295656 -0.149691 0.033333 
1.252124 -0.134445 0.033333 
1.218489 -0.124816 0.033333 
1.176571 -0.116303 0.033333 
1.121277 -0.109753 0.033333 
1.087022 -0.107479 0.033333 
1.047512 -0.106012 0.033333 
1.002112 -0.105460 0.033333 
1.817906 -0.695371 0.033333 
1.804217 -0.653255 0.033333 
1.791149 -0.618615 0.033333 
1.778661 -0.590487 0.033333 
1.755271 -0.549926 0.033333 
1.733726 -0.523883 0.033333 
1.713711 -0.504667 0.033333 
1.685836 -0.476296 0.033333 
1.659480 -0.446872 0.033333 
1.633440 -0.417279 0.033333 
1.606716 -0.388269 0.033333 
1.579120 -0.360043 0.033333 
1.550669 -0.332668 0.033333 
1.521376 -0.306214 0.033333 
1.491249 -0.280774 0.033333 
1.460295 -0.256441 0.033333 
1.428499 -0.233348 0.033333 
1.395763 -0.211769 0.033333 
1.361966 -0.192016 0.033333 
1.326678 -0.174286 0.033333 
1.288218 -0.158316 0.033333 
1.244593 -0.143732 0.033333 
1.210969 -0.134660 0.033333 
1.169451 -0.126332 0.033333 
1.115328 -0.119044 0.033333 
1.082067 -0.115882 0.033333 
1.043887 -0.113091 0.033333 
1.000200 -0.110708 0.033333 
1.826510 -0.687571 0.066667 
1.813293 -0.647700 0.066667 
1.800681 -0.614279 0.066667 
1.788635 -0.586506 0.066667 
1.766081 -0.544696 0.066667 
1.745320 -0.515854 0.066667 
1.726036 -0.493564 0.066667 
1.699174 -0.462011 0.066667 
1.673759 -0.430899 0.066667 
1.648619 -0.400364 0.066667 
1.622778 -0.370532 0.066667 
1.596045 -0.341488 0.066667 
1.568423 -0.313305 0.066667 
1.539915 -0.286060 0.066667 
1.510521 -0.259841 0.066667 
1.480242 -0.234735 0.066667 
1.449059 -0.210873 0.066667 
1.416868 -0.188536 0.066667 
1.383546 -0.168045 0.066667 
1.348659 -0.149551 0.066667 
1.310533 -0.132521 0.066667 
1.267186 -0.116255 0.066667 
1.233529 -0.105803 0.066667 
1.190811 -0.097054 0.066667 
1.133176 -0.091687 0.066667 
1.096933 -0.090796 0.066667 
1.054764 -0.091379 0.066667 
1.005936 -0.093646 0.066667 
1.823642 -0.689547 0.066667 
1.810268 -0.650387 0.066667 
1.797504 -0.617539 0.066667 
1.785310 -0.590218 0.066667 
1.762478 -0.549019 0.066667 
1.741455 -0.520511 0.066667 
1.721927 -0.498416 0.066667 
1.694728 -0.467121 0.066667 
1.668999 -0.436270 0.066667 
1.643559 -0.406002 0.066667 
1.617424 -0.376446 0.066667 
1.590404 -0.347681 0.066667 
1.562505 -0.319776 0.066667 
1.533735 -0.292803 0.066667 
1.504097 -0.266848 0.066667 
1.473593 -0.242001 0.066667 
1.442206 -0.218390 0.066667 
1.409833 -0.196300 0.066667 
1.376352 -0.176057 0.066667 
1.341332 -0.157831 0.066667 
1.303095 -0.141173 0.066667 
1.259655 -0.125481 0.066667 
1.226009 -0.115483 0.066667 
1.183691 -0.106816 0.066667 
1.127226 -0.100650 0.066667 
1.091977 -0.098871 0.066667 
1.051138 -0.098156 0.066667 
1.004024 -0.098652 0.066667 
1.820774 -0.691523 0.066667 
1.807242 -0.653074 0.066667 
1.794326 -0.620799 0.066667 
1.781986 -0.593930 0.066667 
1.758874 -0.553341 0.066667 
1.737591 -0.525167 0.066667 
1.717819 -0.503268 0.066667 
1.690282 -0.472231 0.066667 
1.664240 -0.441641 0.066667 
1.638500 -0.411640 0.066667 
1.612070 -0.382359 0.066667 
1.584762 -0.353874 0.066667 
1.556587 -0.326247 0.066667 
1.527555 -0.299546 0.066667 
1.497673 -0.273856 0.066667 
1.466944 -0.249266 0.066667 
1.435353 -0.225906 0.066667 
1.402798 -0.204065 0.066667 
1.369159 -0.184070 0.066667 
1.334005 -0.166112 0.066667 
1.295656 -0.149825 0.066667 
1.252124 -0.134706 0.066667 
1.218489 -0.125162 0.066667 
1.176571 -0.116577 0.066667 
1.121277 -0.109613 0.066667 
1.087022 -0.106947 0.066667 
1.047512 -0.104934 0.066667 
1.002112 -0.103658 0.066667 
1.817906 -0.693498 0.066667 
1.804217 -0.655761 0.066667 
1.791149 -0.624059 0.066667 
1.778661 -0.597643 0.066667 
1.755271 -0.557664 0.066667 
1.733726 -0.529823 0.066667 
1.713711 -0.508119 0.066667 
1.685836 -0.477341 0.066667 
1.659480 -0.447012 0.066667 
1.633440 -0.417278 0.066667 
1.606716 -0.388273 0.066667 
1.579120 -0.360067 0.066667 
1.550669 -0.332718 0.066667 
1.521376 -0.306289 0.066667 
1.491249 -0.280864 0.066667 
1.460295 -0.256532 0.066667 
1.428499 -0.233423 0.066667 
1.395763 -0.211829 0.066667 
1.361966 -0.192082 0.066667 
1.326678 -0.174392 0.066667 
1.288218 -0.158476 0.066667 
1.244593 -0.143931 0.066667 
1.210969 -0.134842 0.066667 
1.169451 -0.126339 0.066667 
1.115328 -0.118576 0.066667 
1.082067 -0.115022 0.066667 
1.043887 -0.111711 0.066667 
1.000200 -0.108664 0.066667 
1.826510 -0.685699 0.100000 
1.813293 -0.650206 0.100000 
1.800681 -0.619724 0.100000 
1.788635 -0.593662 0.100000 
1.766081 -0.552434 0.100000 
1.745320 -0.521795 0.100000 
1.726036 -0.497017 0.100000 
1.699174 -0.463055 0.100000 
1.673759 -0.431038 0.100000 
1.648619 -0.400363 0.100000 
1.622778 -0.370536 0.100000 
1.596045 -0.341508 0.100000 
1.568423 -0.313342 0.100000 
1.539915 -0.286105 0.100000 
1.510521 -0.259880 0.100000 
1.480242 -0.234756 0.100000 
1.449059 -0.210864 0.100000 
1.416868 -0.188495 0.100000 
1.383546 -0.167986 0.100000 
1.348659 -0.149510 0.100000 
1.310533 -0.132602 0.100000 
1.267186 -0.116638 0.100000 
1.233529 -0.106477 0.100000 
1.190811 -0.097863 0.100000 
1.133176 -0.092203 0.100000 
1.096933 -0.090920 0.100000 
1.054764 -0.090903 0.100000 
1.005936 -0.092328 0.100000 
1.823642 -0.687674 0.100000 
1.810268 -0.652893 0.100000 
1.797504 -0.622984 0.100000 
1.785310 -0.597374 0.100000 
1.762478 -0.556757 0.100000 
1.741455 -0.526451 0.100000 
1.721927 -0.501868 0.100000 
1.694728 -0.468165 0.100000 
1.668999 -0.436409 0.100000 
1.643559 -0.406001 0.100000 
1.617424 -0.376450 0.100000 
1.590404 -0.347702 0.100000 
1.562505 -0.319818 0.100000 
1.533735 -0.292858 0.100000 
1.504097 -0.266905 0.100000 
1.473593 -0.242045 0.100000 
1.442206 -0.218409 0.100000 
1.409833 -0.196294 0.100000 
1.376352 -0.176040 0.100000 
1.341332 -0.157839 0.100000 
1.303095 -0.141280 0.100000 
1.259655 -0.125803 0.100000 
1.226009 -0.115993 0.100000 
1.183691 -0.107357 0.100000 
1.127226 -0.100838 0.100000 
1.091977 -0.098667 0.100000 
1.051138 -0.097379 0.100000 
1.004024 -0.097092 0.100000 
1.820774 -0.689650 0.100000 
1.807242 -0.655580 0.100000 
1.794326 -0.626244 0.100000 
1.781986 -0.601086 0.100000 
1.758874 -0.561079 0.100000 
1.737591 -0.531108 0.100000 
1.717819 -0.506720 0.100000 
1.690282 -0.473275 0.100000 
1.664240 -0.441780 0.100000 
1.638500 -0.411639 0.100000 
1.612070 -0.382363 0.100000 
1.584762 -0.353897 0.100000 
1.556587 -0.326293 0.100000 
1.527555 -0.299610 0.100000 
1.497673 -0.273929 0.100000 
1.466944 -0.249334 0.100000 
1.435353 -0.225954 0.100000 
1.402798 -0.204092 0.100000 
1.369159 -0.184095 0.100000 
1.334005 -0.166169 0.100000 
1.295656 -0.149959 0.100000 
1.252124 -0.134967 0.100000 
1.218489 -0.125509 0.100000 
1.176571 -0.116851 0.100000 
1.121277 -0.109473 0.100000 
1.087022 -0.106414 0.100000 
1.047512 -0.103855 0.100000 
1.002112 -0.101856 0.100000 
1.817906 -0.691626 0.100000 
1.804217 -0.658267 0.100000 
1.791149 -0.629504 0.100000 
1.778661 -0.604798 0.100000 
1.755271 -0.565402 0.100000 
1.733726 -0.535764 0.100000 
1.713711 -0.511571 0.100000 
1.685836 -0.478385 0.100000 
1.659480 -0.447151 0.100000 
1.633440 -0.417278 0.100000 
1.606716 -0.388277 0.100000 
1.579120 -0.360091 0.100000 
1.550669 -0.332768 0.100000 
1.521376 -0.306363 0.100000 
1.491249 -0.280954 0.100000 
1.460295 -0.256623 0.100000 
1.428499 -0.233499 0.100000 
1.395763 -0.211890 0.100000 
1.361966 -0.192149 0.100000 
1.326678 -0.174498 0.100000 
1.288218 -0.158637 0.100000 
1.244593 -0.144131 0.100000 
1.210969 -0.135025 0.100000 
1.169451 -0.126345 0.100000 
1.115328 -0.118109 0.100000 
1.082067 -0.114161 0.100000 
1.043887 -0.110331 0.100000 
1.000200 -0.106620 0.100000 
