VARIABLES = "CoordinateX", "CoordinateY", "CoordinateZ"
Zone T="FFD_vol0" I=10 J=2 K=2
DATAPACKING=POINT
1.000000 -0.002568 0.000000 
0.969214 0.051976 0.000000 
0.877406 0.149742 0.000000 
0.740031 0.250347 0.000000 
0.585055 0.308773 0.000000 
0.414945 0.308773 0.000000 
0.259970 0.250347 0.000000 
0.122594 0.149742 0.000000 
0.030786 0.051976 0.000000 
0.000000 -0.002568 0.000000 
1.000000 -0.012568 0.000000 
0.965146 0.028528 0.000000 
0.880763 0.112157 0.000000 
0.744454 0.214465 0.000000 
0.590302 0.276785 0.000000 
0.409699 0.276785 0.000000 
0.255546 0.214465 0.000000 
0.119237 0.112157 0.000000 
0.034854 0.028528 0.000000 
0.000000 -0.012568 0.000000 
1.000000 -0.002568 0.100000 
0.969214 0.051976 0.100000 
0.877406 0.149742 0.100000 
0.740031 0.250347 0.100000 
0.585055 0.308773 0.100000 
0.414945 0.308773 0.100000 
0.259970 0.250347 0.100000 
0.122594 0.149742 0.100000 
0.030786 0.051976 0.100000 
0.000000 -0.002568 0.100000 
1.000000 -0.012568 0.100000 
0.965146 0.028528 0.100000 
0.880763 0.112157 0.100000 
0.744454 0.214465 0.100000 
0.590302 0.276785 0.100000 
0.409699 0.276785 0.100000 
0.255546 0.214465 0.100000 
0.119237 0.112157 0.100000 
0.034854 0.028528 0.100000 
0.000000 -0.012568 0.100000 
Zone T="embedding_vol" I=28 J=4 K=4
DATAPACKING=POINT
1.000000 -0.002568 0.000000 
0.989199 0.015401 0.000000 
0.977403 0.032934 0.000000 
0.964737 0.050015 0.000000 
0.937294 0.082752 0.000000 
0.907869 0.113481 0.000000 
0.877462 0.142068 0.000000 
0.831522 0.180743 0.000000 
0.784955 0.214445 0.000000 
0.737097 0.243317 0.000000 
0.687409 0.267379 0.000000 
0.635858 0.286152 0.000000 
0.582533 0.299035 0.000000 
0.527698 0.305527 0.000000 
0.472302 0.305527 0.000000 
0.417467 0.299035 0.000000 
0.364142 0.286152 0.000000 
0.312591 0.267379 0.000000 
0.262903 0.243317 0.000000 
0.215045 0.214445 0.000000 
0.168478 0.180743 0.000000 
0.122538 0.142068 0.000000 
0.092131 0.113481 0.000000 
0.062706 0.082752 0.000000 
0.035263 0.050015 0.000000 
0.022597 0.032934 0.000000 
0.010801 0.015401 0.000000 
0.000000 -0.002568 0.000000 
1.000000 -0.005902 0.000000 
0.988839 0.010651 0.000000 
0.976848 0.026918 0.000000 
0.964128 0.042876 0.000000 
0.936894 0.073770 0.000000 
0.907928 0.103145 0.000000 
0.878021 0.130812 0.000000 
0.832593 0.168785 0.000000 
0.786286 0.202378 0.000000 
0.738558 0.231478 0.000000 
0.688948 0.255879 0.000000 
0.637328 0.274997 0.000000 
0.583653 0.288156 0.000000 
0.528118 0.294792 0.000000 
0.471882 0.294792 0.000000 
0.416347 0.288156 0.000000 
0.362672 0.274997 0.000000 
0.311052 0.255879 0.000000 
0.261442 0.231478 0.000000 
0.213714 0.202378 0.000000 
0.167407 0.168785 0.000000 
0.121979 0.130812 0.000000 
0.092072 0.103145 0.000000 
0.063106 0.073770 0.000000 
0.035872 0.042876 0.000000 
0.023152 0.026918 0.000000 
0.011161 0.010651 0.000000 
0.000000 -0.005902 0.000000 
1.000000 -0.009235 0.000000 
0.988478 0.005901 0.000000 
0.976294 0.020902 0.000000 
0.963520 0.035737 0.000000 
0.936495 0.064788 0.000000 
0.907987 0.092810 0.000000 
0.878581 0.119557 0.000000 
0.833664 0.156828 0.000000 
0.787618 0.190312 0.000000 
0.740019 0.219639 0.000000 
0.690487 0.244379 0.000000 
0.638799 0.263842 0.000000 
0.584773 0.277277 0.000000 
0.528538 0.284057 0.000000 
0.471462 0.284057 0.000000 
0.415227 0.277277 0.000000 
0.361201 0.263842 0.000000 
0.309513 0.244379 0.000000 
0.259981 0.219639 0.000000 
0.212382 0.190312 0.000000 
0.166336 0.156828 0.000000 
0.121419 0.119557 0.000000 
0.092013 0.092810 0.000000 
0.063505 0.064788 0.000000 
0.036480 0.035737 0.000000 
0.023706 0.020902 0.000000 
0.011522 0.005901 0.000000 
0.000000 -0.009235 0.000000 
1.000000 -0.012568 0.000000 
0.988118 0.001151 0.000000 
0.975740 0.014886 0.000000 
0.962912 0.028598 0.000000 
0.936096 0.055806 0.000000 
0.908047 0.082474 0.000000 
0.879140 0.108301 0.000000 
0.834736 0.144870 0.000000 
0.788949 0.178245 0.000000 
0.741480 0.207801 0.000000 
0.692025 0.232879 0.000000 
0.640269 0.252687 0.000000 
0.585893 0.266398 0.000000 
0.528958 0.273323 0.000000 
0.471042 0.273323 0.000000 
0.414107 0.266398 0.000000 
0.359731 0.252687 0.000000 
0.307975 0.232879 0.000000 
0.258520 0.207801 0.000000 
0.211051 0.178245 0.000000 
0.165264 0.144870 0.000000 
0.120860 0.108301 0.000000 
0.091953 0.082474 0.000000 
0.063904 0.055806 0.000000 
0.037088 0.028598 0.000000 
0.024260 0.014886 0.000000 
0.011882 0.001151 0.000000 
0.000000 -0.012568 0.000000 
1.000000 -0.002568 0.033333 
0.989199 0.015401 0.033333 
0.977403 0.032934 0.033333 
0.964737 0.050015 0.033333 
0.937294 0.082752 0.033333 
0.907869 0.113481 0.033333 
0.877462 0.142068 0.033333 
0.831522 0.180743 0.033333 
0.784955 0.214445 0.033333 
0.737097 0.243317 0.033333 
0.687409 0.267379 0.033333 
0.635858 0.286152 0.033333 
0.582533 0.299035 0.033333 
0.527698 0.305527 0.033333 
0.472302 0.305527 0.033333 
0.417467 0.299035 0.033333 
0.364142 0.286152 0.033333 
0.312591 0.267379 0.033333 
0.262903 0.243317 0.033333 
0.215045 0.214445 0.033333 
0.168478 0.180743 0.033333 
0.122538 0.142068 0.033333 
0.092131 0.113481 0.033333 
0.062706 0.082752 0.033333 
0.035263 0.050015 0.033333 
0.022597 0.032934 0.033333 
0.010801 0.015401 0.033333 
0.000000 -0.002568 0.033333 
1.000000 -0.005902 0.033333 
0.988839 0.010651 0.033333 
0.976848 0.026918 0.033333 
0.964128 0.042876 0.033333 
0.936894 0.073770 0.033333 
0.907928 0.103145 0.033333 
0.878021 0.130812 0.033333 
0.832593 0.168785 0.033333 
0.786286 0.202378 0.033333 
0.738558 0.231478 0.033333 
0.688948 0.255879 0.033333 
0.637328 0.274997 0.033333 
0.583653 0.288156 0.033333 
0.528118 0.294792 0.033333 
0.471882 0.294792 0.033333 
0.416347 0.288156 0.033333 
0.362672 0.274997 0.033333 
0.311052 0.255879 0.033333 
0.261442 0.231478 0.033333 
0.213714 0.202378 0.033333 
0.167407 0.168785 0.033333 
0.121979 0.130812 0.033333 
0.092072 0.103145 0.033333 
0.063106 0.073770 0.033333 
0.035872 0.042876 0.033333 
0.023152 0.026918 0.033333 
0.011161 0.010651 0.033333 
0.000000 -0.005902 0.033333 
1.000000 -0.009235 0.033333 
0.988478 0.005901 0.033333 
0.976294 0.020902 0.033333 
0.963520 0.035737 0.033333 
0.936495 0.064788 0.033333 
0.907987 0.092810 0.033333 
0.878581 0.119557 0.033333 
0.833664 0.156828 0.033333 
0.787618 0.190312 0.033333 
0.740019 0.219639 0.033333 
0.690487 0.244379 0.033333 
0.638799 0.263842 0.033333 
0.584773 0.277277 0.033333 
0.528538 0.284057 0.033333 
0.471462 0.284057 0.033333 
0.415227 0.277277 0.033333 
0.361201 0.263842 0.033333 
0.309513 0.244379 0.033333 
0.259981 0.219639 0.033333 
0.212382 0.190312 0.033333 
0.166336 0.156828 0.033333 
0.121419 0.119557 0.033333 
0.092013 0.092810 0.033333 
0.063505 0.064788 0.033333 
0.036480 0.035737 0.033333 
0.023706 0.020902 0.033333 
0.011522 0.005901 0.033333 
0.000000 -0.009235 0.033333 
1.000000 -0.012568 0.033333 
0.988118 0.001151 0.033333 
0.975740 0.014886 0.033333 
0.962912 0.028598 0.033333 
0.936096 0.055806 0.033333 
0.908047 0.082474 0.033333 
0.879140 0.108301 0.033333 
0.834736 0.144870 0.033333 
0.788949 0.178245 0.033333 
0.741480 0.207801 0.033333 
0.692025 0.232879 0.033333 
0.640269 0.252687 0.033333 
0.585893 0.266398 0.033333 
0.528958 0.273323 0.033333 
0.471042 0.273323 0.033333 
0.414107 0.266398 0.033333 
0.359731 0.252687 0.033333 
0.307975 0.232879 0.033333 
0.258520 0.207801 0.033333 
0.211051 0.178245 0.033333 
0.165264 0.144870 0.033333 
0.120860 0.108301 0.033333 
0.091953 0.082474 0.033333 
0.063904 0.055806 0.033333 
0.037088 0.028598 0.033333 
0.024260 0.014886 0.033333 
0.011882 0.001151 0.033333 
0.000000 -0.012568 0.033333 
1.000000 -0.002568 0.066667 
0.989199 0.015401 0.066667 
0.977403 0.032934 0.066667 
0.964737 0.050015 0.066667 
0.937294 0.082752 0.066667 
0.907869 0.113481 0.066667 
0.877462 0.142068 0.066667 
0.831522 0.180743 0.066667 
0.784955 0.214445 0.066667 
0.737097 0.243317 0.066667 
0.687409 0.267379 0.066667 
0.635858 0.286152 0.066667 
0.582533 0.299035 0.066667 
0.527698 0.305527 0.066667 
0.472302 0.305527 0.066667 
0.417467 0.299035 0.066667 
0.364142 0.286152 0.066667 
0.312591 0.267379 0.066667 
0.262903 0.243317 0.066667 
0.215045 0.214445 0.066667 
0.168478 0.180743 0.066667 
0.122538 0.142068 0.066667 
0.092131 0.113481 0.066667 
0.062706 0.082752 0.066667 
0.035263 0.050015 0.066667 
0.022597 0.032934 0.066667 
0.010801 0.015401 0.066667 
0.000000 -0.002568 0.066667 
1.000000 -0.005902 0.066667 
0.988839 0.010651 0.066667 
0.976848 0.026918 0.066667 
0.964128 0.042876 0.066667 
0.936894 0.073770 0.066667 
0.907928 0.103145 0.066667 
0.878021 0.130812 0.066667 
0.832593 0.168785 0.066667 
0.786286 0.202378 0.066667 
0.738558 0.231478 0.066667 
0.688948 0.255879 0.066667 
0.637328 0.274997 0.066667 
0.583653 0.288156 0.066667 
0.528118 0.294792 0.066667 
0.471882 0.294792 0.066667 
0.416347 0.288156 0.066667 
0.362672 0.274997 0.066667 
0.311052 0.255879 0.066667 
0.261442 0.231478 0.066667 
0.213714 0.202378 0.066667 
0.167407 0.168785 0.066667 
0.121979 0.130812 0.066667 
0.092072 0.103145 0.066667 
0.063106 0.073770 0.066667 
0.035872 0.042876 0.066667 
0.023152 0.026918 0.066667 
0.011161 0.010651 0.066667 
0.000000 -0.005902 0.066667 
1.000000 -0.009235 0.066667 
0.988478 0.005901 0.066667 
0.976294 0.020902 0.066667 
0.963520 0.035737 0.066667 
0.936495 0.064788 0.066667 
0.907987 0.092810 0.066667 
0.878581 0.119557 0.066667 
0.833664 0.156828 0.066667 
0.787618 0.190312 0.066667 
0.740019 0.219639 0.066667 
0.690487 0.244379 0.066667 
0.638799 0.263842 0.066667 
0.584773 0.277277 0.066667 
0.528538 0.284057 0.066667 
0.471462 0.284057 0.066667 
0.415227 0.277277 0.066667 
0.361201 0.263842 0.066667 
0.309513 0.244379 0.066667 
0.259981 0.219639 0.066667 
0.212382 0.190312 0.066667 
0.166336 0.156828 0.066667 
0.121419 0.119557 0.066667 
0.092013 0.092810 0.066667 
0.063505 0.064788 0.066667 
0.036480 0.035737 0.066667 
0.023706 0.020902 0.066667 
0.011522 0.005901 0.066667 
0.000000 -0.009235 0.066667 
1.000000 -0.012568 0.066667 
0.988118 0.001151 0.066667 
0.975740 0.014886 0.066667 
0.962912 0.028598 0.066667 
0.936096 0.055806 0.066667 
0.908047 0.082474 0.066667 
0.879140 0.108301 0.066667 
0.834736 0.144870 0.066667 
0.788949 0.178245 0.066667 
0.741480 0.207801 0.066667 
0.692025 0.232879 0.066667 
0.640269 0.252687 0.066667 
0.585893 0.266398 0.066667 
0.528958 0.273323 0.066667 
0.471042 0.273323 0.066667 
0.414107 0.266398 0.066667 
0.359731 0.252687 0.066667 
0.307975 0.232879 0.066667 
0.258520 0.207801 0.066667 
0.211051 0.178245 0.066667 
0.165264 0.144870 0.066667 
0.120860 0.108301 0.066667 
0.091953 0.082474 0.066667 
0.063904 0.055806 0.066667 
0.037088 0.028598 0.066667 
0.024260 0.014886 0.066667 
0.011882 0.001151 0.066667 
0.000000 -0.012568 0.066667 
1.000000 -0.002568 0.100000 
0.989199 0.015401 0.100000 
0.977403 0.032934 0.100000 
0.964737 0.050015 0.100000 
0.937294 0.082752 0.100000 
0.907869 0.113481 0.100000 
0.877462 0.142068 0.100000 
0.831522 0.180743 0.100000 
0.784955 0.214445 0.100000 
0.737097 0.243317 0.100000 
0.687409 0.267379 0.100000 
0.635858 0.286152 0.100000 
0.582533 0.299035 0.100000 
0.527698 0.305527 0.100000 
0.472302 0.305527 0.100000 
0.417467 0.299035 0.100000 
0.364142 0.286152 0.100000 
0.312591 0.267379 0.100000 
0.262903 0.243317 0.100000 
0.215045 0.214445 0.100000 
0.168478 0.180743 0.100000 
0.122538 0.142068 0.100000 
0.092131 0.113481 0.100000 
0.062706 0.082752 0.100000 
0.035263 0.050015 0.100000 
0.022597 0.032934 0.100000 
0.010801 0.015401 0.100000 
0.000000 -0.002568 0.100000 
1.000000 -0.005902 0.100000 
0.988839 0.010651 0.100000 
0.976848 0.026918 0.100000 
0.964128 0.042876 0.100000 
0.936894 0.073770 0.100000 
0.907928 0.103145 0.100000 
0.878021 0.130812 0.100000 
0.832593 0.168785 0.100000 
0.786286 0.202378 0.100000 
0.738558 0.231478 0.100000 
0.688948 0.255879 0.100000 
0.637328 0.274997 0.100000 
0.583653 0.288156 0.100000 
0.528118 0.294792 0.100000 
0.471882 0.294792 0.100000 
0.416347 0.288156 0.100000 
0.362672 0.274997 0.100000 
0.311052 0.255879 0.100000 
0.261442 0.231478 0.100000 
0.213714 0.202378 0.100000 
0.167407 0.168785 0.100000 
0.121979 0.130812 0.100000 
0.092072 0.103145 0.100000 
0.063106 0.073770 0.100000 
0.035872 0.042876 0.100000 
0.023152 0.026918 0.100000 
0.011161 0.010651 0.100000 
0.000000 -0.005902 0.100000 
1.000000 -0.009235 0.100000 
0.988478 0.005901 0.100000 
0.976294 0.020902 0.100000 
0.963520 0.035737 0.100000 
0.936495 0.064788 0.100000 
0.907987 0.092810 0.100000 
0.878581 0.119557 0.100000 
0.833664 0.156828 0.100000 
0.787618 0.190312 0.100000 
0.740019 0.219639 0.100000 
0.690487 0.244379 0.100000 
0.638799 0.263842 0.100000 
0.584773 0.277277 0.100000 
0.528538 0.284057 0.100000 
0.471462 0.284057 0.100000 
0.415227 0.277277 0.100000 
0.361201 0.263842 0.100000 
0.309513 0.244379 0.100000 
0.259981 0.219639 0.100000 
0.212382 0.190312 0.100000 
0.166336 0.156828 0.100000 
0.121419 0.119557 0.100000 
0.092013 0.092810 0.100000 
0.063505 0.064788 0.100000 
0.036480 0.035737 0.100000 
0.023706 0.020902 0.100000 
0.011522 0.005901 0.100000 
0.000000 -0.009235 0.100000 
1.000000 -0.012568 0.100000 
0.988118 0.001151 0.100000 
0.975740 0.014886 0.100000 
0.962912 0.028598 0.100000 
0.936096 0.055806 0.100000 
0.908047 0.082474 0.100000 
0.879140 0.108301 0.100000 
0.834736 0.144870 0.100000 
0.788949 0.178245 0.100000 
0.741480 0.207801 0.100000 
0.692025 0.232879 0.100000 
0.640269 0.252687 0.100000 
0.585893 0.266398 0.100000 
0.528958 0.273323 0.100000 
0.471042 0.273323 0.100000 
0.414107 0.266398 0.100000 
0.359731 0.252687 0.100000 
0.307975 0.232879 0.100000 
0.258520 0.207801 0.100000 
0.211051 0.178245 0.100000 
0.165264 0.144870 0.100000 
0.120860 0.108301 0.100000 
0.091953 0.082474 0.100000 
0.063904 0.055806 0.100000 
0.037088 0.028598 0.100000 
0.024260 0.014886 0.100000 
0.011882 0.001151 0.100000 
0.000000 -0.012568 0.100000 
Zone T="FFD_vol1" I=10 J=2 K=2
DATAPACKING=POINT
2.065851 -0.459633 0.000000 
2.004360 -0.380745 0.000000 
1.912300 -0.312995 0.000000 
1.813855 -0.250134 0.000000 
1.709968 -0.193778 0.000000 
1.601138 -0.146665 0.000000 
1.488098 -0.112485 0.000000 
1.370877 -0.102867 0.000000 
1.253574 -0.118533 0.000000 
1.105580 -0.166694 0.000000 
2.061631 -0.474028 0.000000 
1.999047 -0.396400 0.000000 
1.905204 -0.330996 0.000000 
1.804887 -0.271050 0.000000 
1.699305 -0.217901 0.000000 
1.589178 -0.173879 0.000000 
1.475326 -0.142457 0.000000 
1.357864 -0.135163 0.000000 
1.240673 -0.152295 0.000000 
1.102768 -0.176290 0.000000 
2.065851 -0.459633 0.100000 
2.004360 -0.380745 0.100000 
1.912300 -0.312995 0.100000 
1.813855 -0.250134 0.100000 
1.709968 -0.193778 0.100000 
1.601138 -0.146665 0.100000 
1.488098 -0.112485 0.100000 
1.370877 -0.102867 0.100000 
1.253574 -0.118533 0.100000 
1.105580 -0.166694 0.100000 
2.061631 -0.474028 0.100000 
1.999047 -0.396400 0.100000 
1.905204 -0.330996 0.100000 
1.804887 -0.271050 0.100000 
1.699305 -0.217901 0.100000 
1.589178 -0.173879 0.100000 
1.475326 -0.142457 0.100000 
1.357864 -0.135163 0.100000 
1.240673 -0.152295 0.100000 
1.102768 -0.176290 0.100000 
Zone T="embedding_vol" I=28 J=4 K=4
DATAPACKING=POINT
2.065851 -0.459633 0.000000 
2.045914 -0.434951 0.000000 
2.027050 -0.413287 0.000000 
2.009186 -0.394322 0.000000 
1.976163 -0.363221 0.000000 
1.946265 -0.339112 0.000000 
1.918907 -0.319456 0.000000 
1.881409 -0.293996 0.000000 
1.846646 -0.271648 0.000000 
1.812948 -0.251218 0.000000 
1.778927 -0.231727 0.000000 
1.744320 -0.213060 0.000000 
1.709145 -0.195318 0.000000 
1.673422 -0.178610 0.000000 
1.637177 -0.163065 0.000000 
1.600437 -0.148820 0.000000 
1.563225 -0.136062 0.000000 
1.525546 -0.125171 0.000000 
1.487401 -0.116579 0.000000 
1.448455 -0.110697 0.000000 
1.407025 -0.107860 0.000000 
1.361088 -0.108387 0.000000 
1.326190 -0.111129 0.000000 
1.283153 -0.117798 0.000000 
1.226740 -0.130687 0.000000 
1.191880 -0.140179 0.000000 
1.151712 -0.152086 0.000000 
1.105580 -0.166694 0.000000 
2.064444 -0.464431 0.000000 
2.044389 -0.439889 0.000000 
2.025410 -0.418361 0.000000 
2.007436 -0.399530 0.000000 
1.974208 -0.368692 0.000000 
1.944120 -0.344836 0.000000 
1.916587 -0.325423 0.000000 
1.878849 -0.300311 0.000000 
1.843869 -0.278300 0.000000 
1.809969 -0.258206 0.000000 
1.775753 -0.239060 0.000000 
1.740960 -0.220743 0.000000 
1.705612 -0.203353 0.000000 
1.669731 -0.186992 0.000000 
1.633343 -0.171787 0.000000 
1.596477 -0.157873 0.000000 
1.559157 -0.145433 0.000000 
1.521389 -0.134848 0.000000 
1.483176 -0.126545 0.000000 
1.444182 -0.120938 0.000000 
1.402722 -0.118364 0.000000 
1.356773 -0.119145 0.000000 
1.321912 -0.121962 0.000000 
1.279138 -0.128159 0.000000 
1.223431 -0.139481 0.000000 
1.189159 -0.147610 0.000000 
1.149772 -0.157674 0.000000 
1.104643 -0.169893 0.000000 
2.063038 -0.469230 0.000000 
2.042863 -0.444826 0.000000 
2.023771 -0.423435 0.000000 
2.005687 -0.404739 0.000000 
1.972252 -0.374163 0.000000 
1.941974 -0.350559 0.000000 
1.914266 -0.331389 0.000000 
1.876290 -0.306626 0.000000 
1.841093 -0.284952 0.000000 
1.806989 -0.265195 0.000000 
1.772579 -0.246393 0.000000 
1.737601 -0.228427 0.000000 
1.702080 -0.211388 0.000000 
1.666039 -0.195374 0.000000 
1.629509 -0.180509 0.000000 
1.592517 -0.166926 0.000000 
1.555089 -0.154805 0.000000 
1.517232 -0.144524 0.000000 
1.478950 -0.136512 0.000000 
1.439908 -0.131179 0.000000 
1.398419 -0.128868 0.000000 
1.352458 -0.129903 0.000000 
1.317634 -0.132796 0.000000 
1.275122 -0.138520 0.000000 
1.220122 -0.148276 0.000000 
1.186439 -0.155040 0.000000 
1.147833 -0.163262 0.000000 
1.103705 -0.173092 0.000000 
2.061631 -0.474028 0.000000 
2.041338 -0.449763 0.000000 
2.022131 -0.428509 0.000000 
2.003937 -0.409947 0.000000 
1.970297 -0.379634 0.000000 
1.939829 -0.356283 0.000000 
1.911945 -0.337356 0.000000 
1.873730 -0.312941 0.000000 
1.838316 -0.291603 0.000000 
1.804009 -0.272183 0.000000 
1.769405 -0.253726 0.000000 
1.734242 -0.236110 0.000000 
1.698547 -0.219422 0.000000 
1.662348 -0.203755 0.000000 
1.625675 -0.189231 0.000000 
1.588557 -0.175979 0.000000 
1.551021 -0.164176 0.000000 
1.513075 -0.154200 0.000000 
1.474724 -0.146478 0.000000 
1.435634 -0.141421 0.000000 
1.394116 -0.139372 0.000000 
1.348143 -0.140661 0.000000 
1.313356 -0.143630 0.000000 
1.271107 -0.148882 0.000000 
1.216814 -0.157070 0.000000 
1.183719 -0.162470 0.000000 
1.145894 -0.168850 0.000000 
1.102768 -0.176290 0.000000 
2.065851 -0.459633 0.033333 
2.045914 -0.434951 0.033333 
2.027050 -0.413287 0.033333 
2.009186 -0.394322 0.033333 
1.976163 -0.363221 0.033333 
1.946265 -0.339112 0.033333 
1.918907 -0.319456 0.033333 
1.881409 -0.293996 0.033333 
1.846646 -0.271648 0.033333 
1.812948 -0.251218 0.033333 
1.778927 -0.231727 0.033333 
1.744320 -0.213060 0.033333 
1.709145 -0.195318 0.033333 
1.673422 -0.178610 0.033333 
1.637177 -0.163065 0.033333 
1.600437 -0.148820 0.033333 
1.563225 -0.136062 0.033333 
1.525546 -0.125171 0.033333 
1.487401 -0.116579 0.033333 
1.448455 -0.110697 0.033333 
1.407025 -0.107860 0.033333 
1.361088 -0.108387 0.033333 
1.326190 -0.111129 0.033333 
1.283153 -0.117798 0.033333 
1.226740 -0.130687 0.033333 
1.191880 -0.140179 0.033333 
1.151712 -0.152086 0.033333 
1.105580 -0.166694 0.033333 
2.064444 -0.464431 0.033333 
2.044389 -0.439889 0.033333 
2.025410 -0.418361 0.033333 
2.007436 -0.399530 0.033333 
1.974208 -0.368692 0.033333 
1.944120 -0.344836 0.033333 
1.916587 -0.325423 0.033333 
1.878849 -0.300311 0.033333 
1.843869 -0.278300 0.033333 
1.809969 -0.258206 0.033333 
1.775753 -0.239060 0.033333 
1.740960 -0.220743 0.033333 
1.705612 -0.203353 0.033333 
1.669731 -0.186992 0.033333 
1.633343 -0.171787 0.033333 
1.596477 -0.157873 0.033333 
1.559157 -0.145433 0.033333 
1.521389 -0.134848 0.033333 
1.483176 -0.126545 0.033333 
1.444182 -0.120938 0.033333 
1.402722 -0.118364 0.033333 
1.356773 -0.119145 0.033333 
1.321912 -0.121962 0.033333 
1.279138 -0.128159 0.033333 
1.223431 -0.139481 0.033333 
1.189159 -0.147610 0.033333 
1.149772 -0.157674 0.033333 
1.104643 -0.169893 0.033333 
2.063038 -0.469230 0.033333 
2.042863 -0.444826 0.033333 
2.023771 -0.423435 0.033333 
2.005687 -0.404739 0.033333 
1.972252 -0.374163 0.033333 
1.941974 -0.350559 0.033333 
1.914266 -0.331389 0.033333 
1.876290 -0.306626 0.033333 
1.841093 -0.284952 0.033333 
1.806989 -0.265195 0.033333 
1.772579 -0.246393 0.033333 
1.737601 -0.228427 0.033333 
1.702080 -0.211388 0.033333 
1.666039 -0.195374 0.033333 
1.629509 -0.180509 0.033333 
1.592517 -0.166926 0.033333 
1.555089 -0.154805 0.033333 
1.517232 -0.144524 0.033333 
1.478950 -0.136512 0.033333 
1.439908 -0.131179 0.033333 
1.398419 -0.128868 0.033333 
1.352458 -0.129903 0.033333 
1.317634 -0.132796 0.033333 
1.275122 -0.138520 0.033333 
1.220122 -0.148276 0.033333 
1.186439 -0.155040 0.033333 
1.147833 -0.163262 0.033333 
1.103705 -0.173092 0.033333 
2.061631 -0.474028 0.033333 
2.041338 -0.449763 0.033333 
2.022131 -0.428509 0.033333 
2.003937 -0.409947 0.033333 
1.970297 -0.379634 0.033333 
1.939829 -0.356283 0.033333 
1.911945 -0.337356 0.033333 
1.873730 -0.312941 0.033333 
1.838316 -0.291603 0.033333 
1.804009 -0.272183 0.033333 
1.769405 -0.253726 0.033333 
1.734242 -0.236110 0.033333 
1.698547 -0.219422 0.033333 
1.662348 -0.203755 0.033333 
1.625675 -0.189231 0.033333 
1.588557 -0.175979 0.033333 
1.551021 -0.164176 0.033333 
1.513075 -0.154200 0.033333 
1.474724 -0.146478 0.033333 
1.435634 -0.141421 0.033333 
1.394116 -0.139372 0.033333 
1.348143 -0.140661 0.033333 
1.313356 -0.143630 0.033333 
1.271107 -0.148882 0.033333 
1.216814 -0.157070 0.033333 
1.183719 -0.162470 0.033333 
1.145894 -0.168850 0.033333 
1.102768 -0.176290 0.033333 
2.065851 -0.459633 0.066667 
2.045914 -0.434951 0.066667 
2.027050 -0.413287 0.066667 
2.009186 -0.394322 0.066667 
1.976163 -0.363221 0.066667 
1.946265 -0.339112 0.066667 
1.918907 -0.319456 0.066667 
1.881409 -0.293996 0.066667 
1.846646 -0.271648 0.066667 
1.812948 -0.251218 0.066667 
1.778927 -0.231727 0.066667 
1.744320 -0.213060 0.066667 
1.709145 -0.195318 0.066667 
1.673422 -0.178610 0.066667 
1.637177 -0.163065 0.066667 
1.600437 -0.148820 0.066667 
1.563225 -0.136062 0.066667 
1.525546 -0.125171 0.066667 
1.487401 -0.116579 0.066667 
1.448455 -0.110697 0.066667 
1.407025 -0.107860 0.066667 
1.361088 -0.108387 0.066667 
1.326190 -0.111129 0.066667 
1.283153 -0.117798 0.066667 
1.226740 -0.130687 0.066667 
1.191880 -0.140179 0.066667 
1.151712 -0.152086 0.066667 
1.105580 -0.166694 0.066667 
2.064444 -0.464431 0.066667 
2.044389 -0.439889 0.066667 
2.025410 -0.418361 0.066667 
2.007436 -0.399530 0.066667 
1.974208 -0.368692 0.066667 
1.944120 -0.344836 0.066667 
1.916587 -0.325423 0.066667 
1.878849 -0.300311 0.066667 
1.843869 -0.278300 0.066667 
1.809969 -0.258206 0.066667 
1.775753 -0.239060 0.066667 
1.740960 -0.220743 0.066667 
1.705612 -0.203353 0.066667 
1.669731 -0.186992 0.066667 
1.633343 -0.171787 0.066667 
1.596477 -0.157873 0.066667 
1.559157 -0.145433 0.066667 
1.521389 -0.134848 0.066667 
1.483176 -0.126545 0.066667 
1.444182 -0.120938 0.066667 
1.402722 -0.118364 0.066667 
1.356773 -0.119145 0.066667 
1.321912 -0.121962 0.066667 
1.279138 -0.128159 0.066667 
1.223431 -0.139481 0.066667 
1.189159 -0.147610 0.066667 
1.149772 -0.157674 0.066667 
1.104643 -0.169893 0.066667 
2.063038 -0.469230 0.066667 
2.042863 -0.444826 0.066667 
2.023771 -0.423435 0.066667 
2.005687 -0.404739 0.066667 
1.972252 -0.374163 0.066667 
1.941974 -0.350559 0.066667 
1.914266 -0.331389 0.066667 
1.876290 -0.306626 0.066667 
1.841093 -0.284952 0.066667 
1.806989 -0.265195 0.066667 
1.772579 -0.246393 0.066667 
1.737601 -0.228427 0.066667 
1.702080 -0.211388 0.066667 
1.666039 -0.195374 0.066667 
1.629509 -0.180509 0.066667 
1.592517 -0.166926 0.066667 
1.555089 -0.154805 0.066667 
1.517232 -0.144524 0.066667 
1.478950 -0.136512 0.066667 
1.439908 -0.131179 0.066667 
1.398419 -0.128868 0.066667 
1.352458 -0.129903 0.066667 
1.317634 -0.132796 0.066667 
1.275122 -0.138520 0.066667 
1.220122 -0.148276 0.066667 
1.186439 -0.155040 0.066667 
1.147833 -0.163262 0.066667 
1.103705 -0.173092 0.066667 
2.061631 -0.474028 0.066667 
2.041338 -0.449763 0.066667 
2.022131 -0.428509 0.066667 
2.003937 -0.409947 0.066667 
1.970297 -0.379634 0.066667 
1.939829 -0.356283 0.066667 
1.911945 -0.337356 0.066667 
1.873730 -0.312941 0.066667 
1.838316 -0.291603 0.066667 
1.804009 -0.272183 0.066667 
1.769405 -0.253726 0.066667 
1.734242 -0.236110 0.066667 
1.698547 -0.219422 0.066667 
1.662348 -0.203755 0.066667 
1.625675 -0.189231 0.066667 
1.588557 -0.175979 0.066667 
1.551021 -0.164176 0.066667 
1.513075 -0.154200 0.066667 
1.474724 -0.146478 0.066667 
1.435634 -0.141421 0.066667 
1.394116 -0.139372 0.066667 
1.348143 -0.140661 0.066667 
1.313356 -0.143630 0.066667 
1.271107 -0.148882 0.066667 
1.216814 -0.157070 0.066667 
1.183719 -0.162470 0.066667 
1.145894 -0.168850 0.066667 
1.102768 -0.176290 0.066667 
2.065851 -0.459633 0.100000 
2.045914 -0.434951 0.100000 
2.027050 -0.413287 0.100000 
2.009186 -0.394322 0.100000 
1.976163 -0.363221 0.100000 
1.946265 -0.339112 0.100000 
1.918907 -0.319456 0.100000 
1.881409 -0.293996 0.100000 
1.846646 -0.271648 0.100000 
1.812948 -0.251218 0.100000 
1.778927 -0.231727 0.100000 
1.744320 -0.213060 0.100000 
1.709145 -0.195318 0.100000 
1.673422 -0.178610 0.100000 
1.637177 -0.163065 0.100000 
1.600437 -0.148820 0.100000 
1.563225 -0.136062 0.100000 
1.525546 -0.125171 0.100000 
1.487401 -0.116579 0.100000 
1.448455 -0.110697 0.100000 
1.407025 -0.107860 0.100000 
1.361088 -0.108387 0.100000 
1.326190 -0.111129 0.100000 
1.283153 -0.117798 0.100000 
1.226740 -0.130687 0.100000 
1.191880 -0.140179 0.100000 
1.151712 -0.152086 0.100000 
1.105580 -0.166694 0.100000 
2.064444 -0.464431 0.100000 
2.044389 -0.439889 0.100000 
2.025410 -0.418361 0.100000 
2.007436 -0.399530 0.100000 
1.974208 -0.368692 0.100000 
1.944120 -0.344836 0.100000 
1.916587 -0.325423 0.100000 
1.878849 -0.300311 0.100000 
1.843869 -0.278300 0.100000 
1.809969 -0.258206 0.100000 
1.775753 -0.239060 0.100000 
1.740960 -0.220743 0.100000 
1.705612 -0.203353 0.100000 
1.669731 -0.186992 0.100000 
1.633343 -0.171787 0.100000 
1.596477 -0.157873 0.100000 
1.559157 -0.145433 0.100000 
1.521389 -0.134848 0.100000 
1.483176 -0.126545 0.100000 
1.444182 -0.120938 0.100000 
1.402722 -0.118364 0.100000 
1.356773 -0.119145 0.100000 
1.321912 -0.121962 0.100000 
1.279138 -0.128159 0.100000 
1.223431 -0.139481 0.100000 
1.189159 -0.147610 0.100000 
1.149772 -0.157674 0.100000 
1.104643 -0.169893 0.100000 
2.063038 -0.469230 0.100000 
2.042863 -0.444826 0.100000 
2.023771 -0.423435 0.100000 
2.005687 -0.404739 0.100000 
1.972252 -0.374163 0.100000 
1.941974 -0.350559 0.100000 
1.914266 -0.331389 0.100000 
1.876290 -0.306626 0.100000 
1.841093 -0.284952 0.100000 
1.806989 -0.265195 0.100000 
1.772579 -0.246393 0.100000 
1.737601 -0.228427 0.100000 
1.702080 -0.211388 0.100000 
1.666039 -0.195374 0.100000 
1.629509 -0.180509 0.100000 
1.592517 -0.166926 0.100000 
1.555089 -0.154805 0.100000 
1.517232 -0.144524 0.100000 
1.478950 -0.136512 0.100000 
1.439908 -0.131179 0.100000 
1.398419 -0.128868 0.100000 
1.352458 -0.129903 0.100000 
1.317634 -0.132796 0.100000 
1.275122 -0.138520 0.100000 
1.220122 -0.148276 0.100000 
1.186439 -0.155040 0.100000 
1.147833 -0.163262 0.100000 
1.103705 -0.173092 0.100000 
2.061631 -0.474028 0.100000 
2.041338 -0.449763 0.100000 
2.022131 -0.428509 0.100000 
2.003937 -0.409947 0.100000 
1.970297 -0.379634 0.100000 
1.939829 -0.356283 0.100000 
1.911945 -0.337356 0.100000 
1.873730 -0.312941 0.100000 
1.838316 -0.291603 0.100000 
1.804009 -0.272183 0.100000 
1.769405 -0.253726 0.100000 
1.734242 -0.236110 0.100000 
1.698547 -0.219422 0.100000 
1.662348 -0.203755 0.100000 
1.625675 -0.189231 0.100000 
1.588557 -0.175979 0.100000 
1.551021 -0.164176 0.100000 
1.513075 -0.154200 0.100000 
1.474724 -0.146478 0.100000 
1.435634 -0.141421 0.100000 
1.394116 -0.139372 0.100000 
1.348143 -0.140661 0.100000 
1.313356 -0.143630 0.100000 
1.271107 -0.148882 0.100000 
1.216814 -0.157070 0.100000 
1.183719 -0.162470 0.100000 
1.145894 -0.168850 0.100000 
1.102768 -0.176290 0.100000 
