VARIABLES = "CoordinateX", "CoordinateY", "CoordinateZ"
Zone T="FFD_vol0" I=10 J=2 K=2
DATAPACKING=POINT
1.010000 0.021641 0.000000 
0.973716 0.103687 0.000000 
0.899672 0.202147 0.000000 
0.763006 0.296198 0.000000 
0.615441 0.317058 0.000000 
0.384559 0.317058 0.000000 
0.236994 0.296198 0.000000 
0.100328 0.202147 0.000000 
0.026284 0.103687 0.000000 
-0.010000 0.021641 0.000000 
1.010000 -0.049149 0.000000 
0.962798 -0.005594 0.000000 
0.913486 0.050492 0.000000 
0.797974 0.141946 0.000000 
0.643930 0.220531 0.000000 
0.356070 0.220531 0.000000 
0.202026 0.141946 0.000000 
0.086514 0.050492 0.000000 
0.037202 -0.005594 0.000000 
-0.010000 -0.049149 0.000000 
1.010000 0.021641 0.100000 
0.973716 0.103687 0.100000 
0.899672 0.202147 0.100000 
0.763006 0.296198 0.100000 
0.615441 0.317058 0.100000 
0.384559 0.317058 0.100000 
0.236994 0.296198 0.100000 
0.100328 0.202147 0.100000 
0.026284 0.103687 0.100000 
-0.010000 0.021641 0.100000 
1.010000 -0.049149 0.100000 
0.962798 -0.005594 0.100000 
0.913486 0.050492 0.100000 
0.797974 0.141946 0.100000 
0.643930 0.220531 0.100000 
0.356070 0.220531 0.100000 
0.202026 0.141946 0.100000 
0.086514 0.050492 0.100000 
0.037202 -0.005594 0.100000 
-0.010000 -0.049149 0.100000 
Zone T="embedding_vol" I=28 J=4 K=4
DATAPACKING=POINT
1.010000 0.021641 0.000000 
0.997873 0.047807 0.000000 
0.985663 0.071738 0.000000 
0.973339 0.093632 0.000000 
0.948238 0.132093 0.000000 
0.922338 0.164760 0.000000 
0.895405 0.193207 0.000000 
0.852785 0.230396 0.000000 
0.807865 0.260902 0.000000 
0.761190 0.283999 0.000000 
0.712765 0.299408 0.000000 
0.660448 0.308623 0.000000 
0.601555 0.313581 0.000000 
0.534880 0.315899 0.000000 
0.465120 0.315899 0.000000 
0.398445 0.313581 0.000000 
0.339552 0.308623 0.000000 
0.287235 0.299408 0.000000 
0.238810 0.283999 0.000000 
0.192135 0.260902 0.000000 
0.147215 0.230396 0.000000 
0.104595 0.193207 0.000000 
0.077662 0.164760 0.000000 
0.051762 0.132093 0.000000 
0.026661 0.093632 0.000000 
0.014337 0.071738 0.000000 
0.002127 0.047807 0.000000 
-0.010000 0.021641 0.000000 
1.010000 -0.001956 0.000000 
0.996936 0.020144 0.000000 
0.984291 0.040417 0.000000 
0.971967 0.059040 0.000000 
0.947877 0.092045 0.000000 
0.923863 0.120574 0.000000 
0.899124 0.146042 0.000000 
0.859421 0.180684 0.000000 
0.816683 0.210892 0.000000 
0.771310 0.235933 0.000000 
0.723143 0.255279 0.000000 
0.669776 0.269207 0.000000 
0.608246 0.278199 0.000000 
0.537318 0.282654 0.000000 
0.462682 0.282654 0.000000 
0.391754 0.278199 0.000000 
0.330224 0.269207 0.000000 
0.276857 0.255279 0.000000 
0.228690 0.235933 0.000000 
0.183317 0.210892 0.000000 
0.140579 0.180684 0.000000 
0.100876 0.146042 0.000000 
0.076137 0.120574 0.000000 
0.052123 0.092045 0.000000 
0.028033 0.059040 0.000000 
0.015709 0.040417 0.000000 
0.003064 0.020144 0.000000 
-0.010000 -0.001956 0.000000 
1.010000 -0.025553 0.000000 
0.995998 -0.007519 0.000000 
0.982920 0.009095 0.000000 
0.970595 0.024447 0.000000 
0.947515 0.051997 0.000000 
0.925388 0.076387 0.000000 
0.902843 0.098878 0.000000 
0.866057 0.130972 0.000000 
0.825501 0.160881 0.000000 
0.781431 0.187867 0.000000 
0.733520 0.211150 0.000000 
0.679104 0.229791 0.000000 
0.614937 0.242816 0.000000 
0.539756 0.249410 0.000000 
0.460244 0.249410 0.000000 
0.385063 0.242816 0.000000 
0.320896 0.229791 0.000000 
0.266480 0.211150 0.000000 
0.218569 0.187867 0.000000 
0.174499 0.160881 0.000000 
0.133943 0.130972 0.000000 
0.097157 0.098878 0.000000 
0.074612 0.076387 0.000000 
0.052485 0.051997 0.000000 
0.029405 0.024447 0.000000 
0.017080 0.009095 0.000000 
0.004002 -0.007519 0.000000 
-0.010000 -0.025553 0.000000 
1.010000 -0.049149 0.000000 
0.995061 -0.035182 0.000000 
0.981549 -0.022227 0.000000 
0.969222 -0.010145 0.000000 
0.947153 0.011949 0.000000 
0.926913 0.032201 0.000000 
0.906562 0.051713 0.000000 
0.872693 0.081259 0.000000 
0.834319 0.110871 0.000000 
0.791552 0.139801 0.000000 
0.743897 0.167020 0.000000 
0.688432 0.190376 0.000000 
0.621627 0.207433 0.000000 
0.542195 0.216165 0.000000 
0.457805 0.216165 0.000000 
0.378373 0.207433 0.000000 
0.311568 0.190376 0.000000 
0.256103 0.167020 0.000000 
0.208448 0.139801 0.000000 
0.165681 0.110871 0.000000 
0.127307 0.081259 0.000000 
0.093438 0.051713 0.000000 
0.073087 0.032201 0.000000 
0.052847 0.011949 0.000000 
0.030778 -0.010145 0.000000 
0.018451 -0.022227 0.000000 
0.004939 -0.035182 0.000000 
-0.010000 -0.049149 0.000000 
1.010000 0.021641 0.033333 
0.997873 0.047807 0.033333 
0.985663 0.071738 0.033333 
0.973339 0.093632 0.033333 
0.948238 0.132093 0.033333 
0.922338 0.164760 0.033333 
0.895405 0.193207 0.033333 
0.852785 0.230396 0.033333 
0.807865 0.260902 0.033333 
0.761190 0.283999 0.033333 
0.712765 0.299408 0.033333 
0.660448 0.308623 0.033333 
0.601555 0.313581 0.033333 
0.534880 0.315899 0.033333 
0.465120 0.315899 0.033333 
0.398445 0.313581 0.033333 
0.339552 0.308623 0.033333 
0.287235 0.299408 0.033333 
0.238810 0.283999 0.033333 
0.192135 0.260902 0.033333 
0.147215 0.230396 0.033333 
0.104595 0.193207 0.033333 
0.077662 0.164760 0.033333 
0.051762 0.132093 0.033333 
0.026661 0.093632 0.033333 
0.014337 0.071738 0.033333 
0.002127 0.047807 0.033333 
-0.010000 0.021641 0.033333 
1.010000 -0.001956 0.033333 
0.996936 0.020144 0.033333 
0.984291 0.040417 0.033333 
0.971967 0.059040 0.033333 
0.947877 0.092045 0.033333 
0.923863 0.120574 0.033333 
0.899124 0.146042 0.033333 
0.859421 0.180684 0.033333 
0.816683 0.210892 0.033333 
0.771310 0.235933 0.033333 
0.723143 0.255279 0.033333 
0.669776 0.269207 0.033333 
0.608246 0.278199 0.033333 
0.537318 0.282654 0.033333 
0.462682 0.282654 0.033333 
0.391754 0.278199 0.033333 
0.330224 0.269207 0.033333 
0.276857 0.255279 0.033333 
0.228690 0.235933 0.033333 
0.183317 0.210892 0.033333 
0.140579 0.180684 0.033333 
0.100876 0.146042 0.033333 
0.076137 0.120574 0.033333 
0.052123 0.092045 0.033333 
0.028033 0.059040 0.033333 
0.015709 0.040417 0.033333 
0.003064 0.020144 0.033333 
-0.010000 -0.001956 0.033333 
1.010000 -0.025553 0.033333 
0.995998 -0.007519 0.033333 
0.982920 0.009095 0.033333 
0.970595 0.024447 0.033333 
0.947515 0.051997 0.033333 
0.925388 0.076387 0.033333 
0.902843 0.098878 0.033333 
0.866057 0.130972 0.033333 
0.825501 0.160881 0.033333 
0.781431 0.187867 0.033333 
0.733520 0.211150 0.033333 
0.679104 0.229791 0.033333 
0.614937 0.242816 0.033333 
0.539756 0.249410 0.033333 
0.460244 0.249410 0.033333 
0.385063 0.242816 0.033333 
0.320896 0.229791 0.033333 
0.266480 0.211150 0.033333 
0.218569 0.187867 0.033333 
0.174499 0.160881 0.033333 
0.133943 0.130972 0.033333 
0.097157 0.098878 0.033333 
0.074612 0.076387 0.033333 
0.052485 0.051997 0.033333 
0.029405 0.024447 0.033333 
0.017080 0.009095 0.033333 
0.004002 -0.007519 0.033333 
-0.010000 -0.025553 0.033333 
1.010000 -0.049149 0.033333 
0.995061 -0.035182 0.033333 
0.981549 -0.022227 0.033333 
0.969222 -0.010145 0.033333 
0.947153 0.011949 0.033333 
0.926913 0.032201 0.033333 
0.906562 0.051713 0.033333 
0.872693 0.081259 0.033333 
0.834319 0.110871 0.033333 
0.791552 0.139801 0.033333 
0.743897 0.167020 0.033333 
0.688432 0.190376 0.033333 
0.621627 0.207433 0.033333 
0.542195 0.216165 0.033333 
0.457805 0.216165 0.033333 
0.378373 0.207433 0.033333 
0.311568 0.190376 0.033333 
0.256103 0.167020 0.033333 
0.208448 0.139801 0.033333 
0.165681 0.110871 0.033333 
0.127307 0.081259 0.033333 
0.093438 0.051713 0.033333 
0.073087 0.032201 0.033333 
0.052847 0.011949 0.033333 
0.030778 -0.010145 0.033333 
0.018451 -0.022227 0.033333 
0.004939 -0.035182 0.033333 
-0.010000 -0.049149 0.033333 
1.010000 0.021641 0.066667 
0.997873 0.047807 0.066667 
0.985663 0.071738 0.066667 
0.973339 0.093632 0.066667 
0.948238 0.132093 0.066667 
0.922338 0.164760 0.066667 
0.895405 0.193207 0.066667 
0.852785 0.230396 0.066667 
0.807865 0.260902 0.066667 
0.761190 0.283999 0.066667 
0.712765 0.299408 0.066667 
0.660448 0.308623 0.066667 
0.601555 0.313581 0.066667 
0.534880 0.315899 0.066667 
0.465120 0.315899 0.066667 
0.398445 0.313581 0.066667 
0.339552 0.308623 0.066667 
0.287235 0.299408 0.066667 
0.238810 0.283999 0.066667 
0.192135 0.260902 0.066667 
0.147215 0.230396 0.066667 
0.104595 0.193207 0.066667 
0.077662 0.164760 0.066667 
0.051762 0.132093 0.066667 
0.026661 0.093632 0.066667 
0.014337 0.071738 0.066667 
0.002127 0.047807 0.066667 
-0.010000 0.021641 0.066667 
1.010000 -0.001956 0.066667 
0.996936 0.020144 0.066667 
0.984291 0.040417 0.066667 
0.971967 0.059040 0.066667 
0.947877 0.092045 0.066667 
0.923863 0.120574 0.066667 
0.899124 0.146042 0.066667 
0.859421 0.180684 0.066667 
0.816683 0.210892 0.066667 
0.771310 0.235933 0.066667 
0.723143 0.255279 0.066667 
0.669776 0.269207 0.066667 
0.608246 0.278199 0.066667 
0.537318 0.282654 0.066667 
0.462682 0.282654 0.066667 
0.391754 0.278199 0.066667 
0.330224 0.269207 0.066667 
0.276857 0.255279 0.066667 
0.228690 0.235933 0.066667 
0.183317 0.210892 0.066667 
0.140579 0.180684 0.066667 
0.100876 0.146042 0.066667 
0.076137 0.120574 0.066667 
0.052123 0.092045 0.066667 
0.028033 0.059040 0.066667 
0.015709 0.040417 0.066667 
0.003064 0.020144 0.066667 
-0.010000 -0.001956 0.066667 
1.010000 -0.025553 0.066667 
0.995998 -0.007519 0.066667 
0.982920 0.009095 0.066667 
0.970595 0.024447 0.066667 
0.947515 0.051997 0.066667 
0.925388 0.076387 0.066667 
0.902843 0.098878 0.066667 
0.866057 0.130972 0.066667 
0.825501 0.160881 0.066667 
0.781431 0.187867 0.066667 
0.733520 0.211150 0.066667 
0.679104 0.229791 0.066667 
0.614937 0.242816 0.066667 
0.539756 0.249410 0.066667 
0.460244 0.249410 0.066667 
0.385063 0.242816 0.066667 
0.320896 0.229791 0.066667 
0.266480 0.211150 0.066667 
0.218569 0.187867 0.066667 
0.174499 0.160881 0.066667 
0.133943 0.130972 0.066667 
0.097157 0.098878 0.066667 
0.074612 0.076387 0.066667 
0.052485 0.051997 0.066667 
0.029405 0.024447 0.066667 
0.017080 0.009095 0.066667 
0.004002 -0.007519 0.066667 
-0.010000 -0.025553 0.066667 
1.010000 -0.049149 0.066667 
0.995061 -0.035182 0.066667 
0.981549 -0.022227 0.066667 
0.969222 -0.010145 0.066667 
0.947153 0.011949 0.066667 
0.926913 0.032201 0.066667 
0.906562 0.051713 0.066667 
0.872693 0.081259 0.066667 
0.834319 0.110871 0.066667 
0.791552 0.139801 0.066667 
0.743897 0.167020 0.066667 
0.688432 0.190376 0.066667 
0.621627 0.207433 0.066667 
0.542195 0.216165 0.066667 
0.457805 0.216165 0.066667 
0.378373 0.207433 0.066667 
0.311568 0.190376 0.066667 
0.256103 0.167020 0.066667 
0.208448 0.139801 0.066667 
0.165681 0.110871 0.066667 
0.127307 0.081259 0.066667 
0.093438 0.051713 0.066667 
0.073087 0.032201 0.066667 
0.052847 0.011949 0.066667 
0.030778 -0.010145 0.066667 
0.018451 -0.022227 0.066667 
0.004939 -0.035182 0.066667 
-0.010000 -0.049149 0.066667 
1.010000 0.021641 0.100000 
0.997873 0.047807 0.100000 
0.985663 0.071738 0.100000 
0.973339 0.093632 0.100000 
0.948238 0.132093 0.100000 
0.922338 0.164760 0.100000 
0.895405 0.193207 0.100000 
0.852785 0.230396 0.100000 
0.807865 0.260902 0.100000 
0.761190 0.283999 0.100000 
0.712765 0.299408 0.100000 
0.660448 0.308623 0.100000 
0.601555 0.313581 0.100000 
0.534880 0.315899 0.100000 
0.465120 0.315899 0.100000 
0.398445 0.313581 0.100000 
0.339552 0.308623 0.100000 
0.287235 0.299408 0.100000 
0.238810 0.283999 0.100000 
0.192135 0.260902 0.100000 
0.147215 0.230396 0.100000 
0.104595 0.193207 0.100000 
0.077662 0.164760 0.100000 
0.051762 0.132093 0.100000 
0.026661 0.093632 0.100000 
0.014337 0.071738 0.100000 
0.002127 0.047807 0.100000 
-0.010000 0.021641 0.100000 
1.010000 -0.001956 0.100000 
0.996936 0.020144 0.100000 
0.984291 0.040417 0.100000 
0.971967 0.059040 0.100000 
0.947877 0.092045 0.100000 
0.923863 0.120574 0.100000 
0.899124 0.146042 0.100000 
0.859421 0.180684 0.100000 
0.816683 0.210892 0.100000 
0.771310 0.235933 0.100000 
0.723143 0.255279 0.100000 
0.669776 0.269207 0.100000 
0.608246 0.278199 0.100000 
0.537318 0.282654 0.100000 
0.462682 0.282654 0.100000 
0.391754 0.278199 0.100000 
0.330224 0.269207 0.100000 
0.276857 0.255279 0.100000 
0.228690 0.235933 0.100000 
0.183317 0.210892 0.100000 
0.140579 0.180684 0.100000 
0.100876 0.146042 0.100000 
0.076137 0.120574 0.100000 
0.052123 0.092045 0.100000 
0.028033 0.059040 0.100000 
0.015709 0.040417 0.100000 
0.003064 0.020144 0.100000 
-0.010000 -0.001956 0.100000 
1.010000 -0.025553 0.100000 
0.995998 -0.007519 0.100000 
0.982920 0.009095 0.100000 
0.970595 0.024447 0.100000 
0.947515 0.051997 0.100000 
0.925388 0.076387 0.100000 
0.902843 0.098878 0.100000 
0.866057 0.130972 0.100000 
0.825501 0.160881 0.100000 
0.781431 0.187867 0.100000 
0.733520 0.211150 0.100000 
0.679104 0.229791 0.100000 
0.614937 0.242816 0.100000 
0.539756 0.249410 0.100000 
0.460244 0.249410 0.100000 
0.385063 0.242816 0.100000 
0.320896 0.229791 0.100000 
0.266480 0.211150 0.100000 
0.218569 0.187867 0.100000 
0.174499 0.160881 0.100000 
0.133943 0.130972 0.100000 
0.097157 0.098878 0.100000 
0.074612 0.076387 0.100000 
0.052485 0.051997 0.100000 
0.029405 0.024447 0.100000 
0.017080 0.009095 0.100000 
0.004002 -0.007519 0.100000 
-0.010000 -0.025553 0.100000 
1.010000 -0.049149 0.100000 
0.995061 -0.035182 0.100000 
0.981549 -0.022227 0.100000 
0.969222 -0.010145 0.100000 
0.947153 0.011949 0.100000 
0.926913 0.032201 0.100000 
0.906562 0.051713 0.100000 
0.872693 0.081259 0.100000 
0.834319 0.110871 0.100000 
0.791552 0.139801 0.100000 
0.743897 0.167020 0.100000 
0.688432 0.190376 0.100000 
0.621627 0.207433 0.100000 
0.542195 0.216165 0.100000 
0.457805 0.216165 0.100000 
0.378373 0.207433 0.100000 
0.311568 0.190376 0.100000 
0.256103 0.167020 0.100000 
0.208448 0.139801 0.100000 
0.165681 0.110871 0.100000 
0.127307 0.081259 0.100000 
0.093438 0.051713 0.100000 
0.073087 0.032201 0.100000 
0.052847 0.011949 0.100000 
0.030778 -0.010145 0.100000 
0.018451 -0.022227 0.100000 
0.004939 -0.035182 0.100000 
-0.010000 -0.049149 0.100000 
Zone T="FFD_vol1" I=10 J=2 K=2
DATAPACKING=POINT
1.843020 -0.695663 0.000000 
1.843105 -0.623344 0.000000 
1.761571 -0.524658 0.000000 
1.681730 -0.430694 0.000000 
1.601087 -0.343553 0.000000 
1.515134 -0.264543 0.000000 
1.413181 -0.195944 0.000000 
1.304468 -0.147745 0.000000 
1.156716 -0.121312 0.000000 
1.022422 -0.124152 0.000000 
1.834416 -0.707951 0.000000 
1.838765 -0.636475 0.000000 
1.749275 -0.539443 0.000000 
1.662614 -0.447640 0.000000 
1.577854 -0.362995 0.000000 
1.487723 -0.286499 0.000000 
1.382344 -0.220252 0.000000 
1.273154 -0.174178 0.000000 
1.154192 -0.149170 0.000000 
1.016686 -0.132344 0.000000 
1.843020 -0.695663 0.100000 
1.843105 -0.623344 0.100000 
1.761571 -0.524658 0.100000 
1.681730 -0.430694 0.100000 
1.601087 -0.343553 0.100000 
1.515134 -0.264543 0.100000 
1.413181 -0.195944 0.100000 
1.304468 -0.147745 0.100000 
1.156716 -0.121312 0.100000 
1.022422 -0.124152 0.100000 
1.834416 -0.707951 0.100000 
1.838765 -0.636475 0.100000 
1.749275 -0.539443 0.100000 
1.662614 -0.447640 0.100000 
1.577854 -0.362995 0.100000 
1.487723 -0.286499 0.100000 
1.382344 -0.220252 0.100000 
1.273154 -0.174178 0.100000 
1.154192 -0.149170 0.100000 
1.016686 -0.132344 0.100000 
Zone T="embedding_vol" I=28 J=4 K=4
DATAPACKING=POINT
1.843020 -0.695663 0.000000 
1.841601 -0.672388 0.000000 
1.837550 -0.650701 0.000000 
1.831263 -0.630485 0.000000 
1.813554 -0.594011 0.000000 
1.791630 -0.562045 0.000000 
1.768647 -0.533669 0.000000 
1.737049 -0.496049 0.000000 
1.708566 -0.462686 0.000000 
1.681596 -0.431831 0.000000 
1.654776 -0.402034 0.000000 
1.627700 -0.373043 0.000000 
1.600202 -0.344908 0.000000 
1.572075 -0.317682 0.000000 
1.542962 -0.291444 0.000000 
1.512467 -0.266278 0.000000 
1.480318 -0.242317 0.000000 
1.446732 -0.219882 0.000000 
1.412054 -0.199344 0.000000 
1.375912 -0.180938 0.000000 
1.335088 -0.164359 0.000000 
1.285649 -0.149170 0.000000 
1.245700 -0.139781 0.000000 
1.197435 -0.131777 0.000000 
1.138117 -0.126123 0.000000 
1.103457 -0.124477 0.000000 
1.065006 -0.123780 0.000000 
1.022422 -0.124152 0.000000 
1.840152 -0.699759 0.000000 
1.839109 -0.676578 0.000000 
1.835256 -0.654983 0.000000 
1.829013 -0.634860 0.000000 
1.811031 -0.598568 0.000000 
1.788519 -0.566781 0.000000 
1.764833 -0.538579 0.000000 
1.732282 -0.501213 0.000000 
1.703007 -0.468099 0.000000 
1.675374 -0.437498 0.000000 
1.647991 -0.407966 0.000000 
1.620418 -0.379248 0.000000 
1.592454 -0.351390 0.000000 
1.563867 -0.324442 0.000000 
1.534301 -0.298481 0.000000 
1.503372 -0.273588 0.000000 
1.470818 -0.249894 0.000000 
1.436884 -0.227719 0.000000 
1.401939 -0.207434 0.000000 
1.365719 -0.189273 0.000000 
1.325428 -0.172934 0.000000 
1.277636 -0.157982 0.000000 
1.239537 -0.148676 0.000000 
1.193296 -0.140309 0.000000 
1.135627 -0.133396 0.000000 
1.101480 -0.130646 0.000000 
1.063245 -0.128454 0.000000 
1.020510 -0.126883 0.000000 
1.837284 -0.703855 0.000000 
1.836617 -0.680767 0.000000 
1.832962 -0.659266 0.000000 
1.826763 -0.639235 0.000000 
1.808508 -0.603125 0.000000 
1.785408 -0.571517 0.000000 
1.761019 -0.543490 0.000000 
1.727516 -0.506376 0.000000 
1.697448 -0.473513 0.000000 
1.669153 -0.443166 0.000000 
1.641206 -0.413897 0.000000 
1.613136 -0.385452 0.000000 
1.584706 -0.357871 0.000000 
1.555659 -0.331202 0.000000 
1.525641 -0.305517 0.000000 
1.494277 -0.280898 0.000000 
1.461319 -0.257471 0.000000 
1.427036 -0.235557 0.000000 
1.391824 -0.215524 0.000000 
1.355525 -0.197608 0.000000 
1.315767 -0.181509 0.000000 
1.269624 -0.166793 0.000000 
1.233375 -0.157571 0.000000 
1.189156 -0.148840 0.000000 
1.133136 -0.140669 0.000000 
1.099503 -0.136815 0.000000 
1.061484 -0.133127 0.000000 
1.018598 -0.129613 0.000000 
1.834416 -0.707951 0.000000 
1.834126 -0.684957 0.000000 
1.830668 -0.663548 0.000000 
1.824512 -0.643610 0.000000 
1.805985 -0.607683 0.000000 
1.782297 -0.576253 0.000000 
1.757204 -0.548400 0.000000 
1.722749 -0.511540 0.000000 
1.691889 -0.478926 0.000000 
1.662931 -0.448833 0.000000 
1.634421 -0.419829 0.000000 
1.605854 -0.391656 0.000000 
1.576959 -0.364353 0.000000 
1.547451 -0.337962 0.000000 
1.516980 -0.312554 0.000000 
1.485182 -0.288207 0.000000 
1.451820 -0.265047 0.000000 
1.417188 -0.243394 0.000000 
1.381709 -0.223614 0.000000 
1.345331 -0.205943 0.000000 
1.306107 -0.190083 0.000000 
1.261612 -0.175605 0.000000 
1.227213 -0.166466 0.000000 
1.185017 -0.157371 0.000000 
1.130646 -0.147942 0.000000 
1.097527 -0.142984 0.000000 
1.059723 -0.137800 0.000000 
1.016686 -0.132344 0.000000 
1.843020 -0.695663 0.033333 
1.841601 -0.672388 0.033333 
1.837550 -0.650701 0.033333 
1.831263 -0.630485 0.033333 
1.813554 -0.594011 0.033333 
1.791630 -0.562045 0.033333 
1.768647 -0.533669 0.033333 
1.737049 -0.496049 0.033333 
1.708566 -0.462686 0.033333 
1.681596 -0.431831 0.033333 
1.654776 -0.402034 0.033333 
1.627700 -0.373043 0.033333 
1.600202 -0.344908 0.033333 
1.572075 -0.317682 0.033333 
1.542962 -0.291444 0.033333 
1.512467 -0.266278 0.033333 
1.480318 -0.242317 0.033333 
1.446732 -0.219882 0.033333 
1.412054 -0.199344 0.033333 
1.375912 -0.180938 0.033333 
1.335088 -0.164359 0.033333 
1.285649 -0.149170 0.033333 
1.245700 -0.139781 0.033333 
1.197435 -0.131777 0.033333 
1.138117 -0.126123 0.033333 
1.103457 -0.124477 0.033333 
1.065006 -0.123780 0.033333 
1.022422 -0.124152 0.033333 
1.840152 -0.699759 0.033333 
1.839109 -0.676578 0.033333 
1.835256 -0.654983 0.033333 
1.829013 -0.634860 0.033333 
1.811031 -0.598568 0.033333 
1.788519 -0.566781 0.033333 
1.764833 -0.538579 0.033333 
1.732282 -0.501213 0.033333 
1.703007 -0.468099 0.033333 
1.675374 -0.437498 0.033333 
1.647991 -0.407966 0.033333 
1.620418 -0.379248 0.033333 
1.592454 -0.351390 0.033333 
1.563867 -0.324442 0.033333 
1.534301 -0.298481 0.033333 
1.503372 -0.273588 0.033333 
1.470818 -0.249894 0.033333 
1.436884 -0.227719 0.033333 
1.401939 -0.207434 0.033333 
1.365719 -0.189273 0.033333 
1.325428 -0.172934 0.033333 
1.277636 -0.157982 0.033333 
1.239537 -0.148676 0.033333 
1.193296 -0.140309 0.033333 
1.135627 -0.133396 0.033333 
1.101480 -0.130646 0.033333 
1.063245 -0.128454 0.033333 
1.020510 -0.126883 0.033333 
1.837284 -0.703855 0.033333 
1.836617 -0.680767 0.033333 
1.832962 -0.659266 0.033333 
1.826763 -0.639235 0.033333 
1.808508 -0.603125 0.033333 
1.785408 -0.571517 0.033333 
1.761019 -0.543490 0.033333 
1.727516 -0.506376 0.033333 
1.697448 -0.473513 0.033333 
1.669153 -0.443166 0.033333 
1.641206 -0.413897 0.033333 
1.613136 -0.385452 0.033333 
1.584706 -0.357871 0.033333 
1.555659 -0.331202 0.033333 
1.525641 -0.305517 0.033333 
1.494277 -0.280898 0.033333 
1.461319 -0.257471 0.033333 
1.427036 -0.235557 0.033333 
1.391824 -0.215524 0.033333 
1.355525 -0.197608 0.033333 
1.315767 -0.181509 0.033333 
1.269624 -0.166793 0.033333 
1.233375 -0.157571 0.033333 
1.189156 -0.148840 0.033333 
1.133136 -0.140669 0.033333 
1.099503 -0.136815 0.033333 
1.061484 -0.133127 0.033333 
1.018598 -0.129613 0.033333 
1.834416 -0.707951 0.033333 
1.834126 -0.684957 0.033333 
1.830668 -0.663548 0.033333 
1.824512 -0.643610 0.033333 
1.805985 -0.607683 0.033333 
1.782297 -0.576253 0.033333 
1.757204 -0.548400 0.033333 
1.722749 -0.511540 0.033333 
1.691889 -0.478926 0.033333 
1.662931 -0.448833 0.033333 
1.634421 -0.419829 0.033333 
1.605854 -0.391656 0.033333 
1.576959 -0.364353 0.033333 
1.547451 -0.337962 0.033333 
1.516980 -0.312554 0.033333 
1.485182 -0.288207 0.033333 
1.451820 -0.265047 0.033333 
1.417188 -0.243394 0.033333 
1.381709 -0.223614 0.033333 
1.345331 -0.205943 0.033333 
1.306107 -0.190083 0.033333 
1.261612 -0.175605 0.033333 
1.227213 -0.166466 0.033333 
1.185017 -0.157371 0.033333 
1.130646 -0.147942 0.033333 
1.097527 -0.142984 0.033333 
1.059723 -0.137800 0.033333 
1.016686 -0.132344 0.033333 
1.843020 -0.695663 0.066667 
1.841601 -0.672388 0.066667 
1.837550 -0.650701 0.066667 
1.831263 -0.630485 0.066667 
1.813554 -0.594011 0.066667 
1.791630 -0.562045 0.066667 
1.768647 -0.533669 0.066667 
1.737049 -0.496049 0.066667 
1.708566 -0.462686 0.066667 
1.681596 -0.431831 0.066667 
1.654776 -0.402034 0.066667 
1.627700 -0.373043 0.066667 
1.600202 -0.344908 0.066667 
1.572075 -0.317682 0.066667 
1.542962 -0.291444 0.066667 
1.512467 -0.266278 0.066667 
1.480318 -0.242317 0.066667 
1.446732 -0.219882 0.066667 
1.412054 -0.199344 0.066667 
1.375912 -0.180938 0.066667 
1.335088 -0.164359 0.066667 
1.285649 -0.149170 0.066667 
1.245700 -0.139781 0.066667 
1.197435 -0.131777 0.066667 
1.138117 -0.126123 0.066667 
1.103457 -0.124477 0.066667 
1.065006 -0.123780 0.066667 
1.022422 -0.124152 0.066667 
1.840152 -0.699759 0.066667 
1.839109 -0.676578 0.066667 
1.835256 -0.654983 0.066667 
1.829013 -0.634860 0.066667 
1.811031 -0.598568 0.066667 
1.788519 -0.566781 0.066667 
1.764833 -0.538579 0.066667 
1.732282 -0.501213 0.066667 
1.703007 -0.468099 0.066667 
1.675374 -0.437498 0.066667 
1.647991 -0.407966 0.066667 
1.620418 -0.379248 0.066667 
1.592454 -0.351390 0.066667 
1.563867 -0.324442 0.066667 
1.534301 -0.298481 0.066667 
1.503372 -0.273588 0.066667 
1.470818 -0.249894 0.066667 
1.436884 -0.227719 0.066667 
1.401939 -0.207434 0.066667 
1.365719 -0.189273 0.066667 
1.325428 -0.172934 0.066667 
1.277636 -0.157982 0.066667 
1.239537 -0.148676 0.066667 
1.193296 -0.140309 0.066667 
1.135627 -0.133396 0.066667 
1.101480 -0.130646 0.066667 
1.063245 -0.128454 0.066667 
1.020510 -0.126883 0.066667 
1.837284 -0.703855 0.066667 
1.836617 -0.680767 0.066667 
1.832962 -0.659266 0.066667 
1.826763 -0.639235 0.066667 
1.808508 -0.603125 0.066667 
1.785408 -0.571517 0.066667 
1.761019 -0.543490 0.066667 
1.727516 -0.506376 0.066667 
1.697448 -0.473513 0.066667 
1.669153 -0.443166 0.066667 
1.641206 -0.413897 0.066667 
1.613136 -0.385452 0.066667 
1.584706 -0.357871 0.066667 
1.555659 -0.331202 0.066667 
1.525641 -0.305517 0.066667 
1.494277 -0.280898 0.066667 
1.461319 -0.257471 0.066667 
1.427036 -0.235557 0.066667 
1.391824 -0.215524 0.066667 
1.355525 -0.197608 0.066667 
1.315767 -0.181509 0.066667 
1.269624 -0.166793 0.066667 
1.233375 -0.157571 0.066667 
1.189156 -0.148840 0.066667 
1.133136 -0.140669 0.066667 
1.099503 -0.136815 0.066667 
1.061484 -0.133127 0.066667 
1.018598 -0.129613 0.066667 
1.834416 -0.707951 0.066667 
1.834126 -0.684957 0.066667 
1.830668 -0.663548 0.066667 
1.824512 -0.643610 0.066667 
1.805985 -0.607683 0.066667 
1.782297 -0.576253 0.066667 
1.757204 -0.548400 0.066667 
1.722749 -0.511540 0.066667 
1.691889 -0.478926 0.066667 
1.662931 -0.448833 0.066667 
1.634421 -0.419829 0.066667 
1.605854 -0.391656 0.066667 
1.576959 -0.364353 0.066667 
1.547451 -0.337962 0.066667 
1.516980 -0.312554 0.066667 
1.485182 -0.288207 0.066667 
1.451820 -0.265047 0.066667 
1.417188 -0.243394 0.066667 
1.381709 -0.223614 0.066667 
1.345331 -0.205943 0.066667 
1.306107 -0.190083 0.066667 
1.261612 -0.175605 0.066667 
1.227213 -0.166466 0.066667 
1.185017 -0.157371 0.066667 
1.130646 -0.147942 0.066667 
1.097527 -0.142984 0.066667 
1.059723 -0.137800 0.066667 
1.016686 -0.132344 0.066667 
1.843020 -0.695663 0.100000 
1.841601 -0.672388 0.100000 
1.837550 -0.650701 0.100000 
1.831263 -0.630485 0.100000 
1.813554 -0.594011 0.100000 
1.791630 -0.562045 0.100000 
1.768647 -0.533669 0.100000 
1.737049 -0.496049 0.100000 
1.708566 -0.462686 0.100000 
1.681596 -0.431831 0.100000 
1.654776 -0.402034 0.100000 
1.627700 -0.373043 0.100000 
1.600202 -0.344908 0.100000 
1.572075 -0.317682 0.100000 
1.542962 -0.291444 0.100000 
1.512467 -0.266278 0.100000 
1.480318 -0.242317 0.100000 
1.446732 -0.219882 0.100000 
1.412054 -0.199344 0.100000 
1.375912 -0.180938 0.100000 
1.335088 -0.164359 0.100000 
1.285649 -0.149170 0.100000 
1.245700 -0.139781 0.100000 
1.197435 -0.131777 0.100000 
1.138117 -0.126123 0.100000 
1.103457 -0.124477 0.100000 
1.065006 -0.123780 0.100000 
1.022422 -0.124152 0.100000 
1.840152 -0.699759 0.100000 
1.839109 -0.676578 0.100000 
1.835256 -0.654983 0.100000 
1.829013 -0.634860 0.100000 
1.811031 -0.598568 0.100000 
1.788519 -0.566781 0.100000 
1.764833 -0.538579 0.100000 
1.732282 -0.501213 0.100000 
1.703007 -0.468099 0.100000 
1.675374 -0.437498 0.100000 
1.647991 -0.407966 0.100000 
1.620418 -0.379248 0.100000 
1.592454 -0.351390 0.100000 
1.563867 -0.324442 0.100000 
1.534301 -0.298481 0.100000 
1.503372 -0.273588 0.100000 
1.470818 -0.249894 0.100000 
1.436884 -0.227719 0.100000 
1.401939 -0.207434 0.100000 
1.365719 -0.189273 0.100000 
1.325428 -0.172934 0.100000 
1.277636 -0.157982 0.100000 
1.239537 -0.148676 0.100000 
1.193296 -0.140309 0.100000 
1.135627 -0.133396 0.100000 
1.101480 -0.130646 0.100000 
1.063245 -0.128454 0.100000 
1.020510 -0.126883 0.100000 
1.837284 -0.703855 0.100000 
1.836617 -0.680767 0.100000 
1.832962 -0.659266 0.100000 
1.826763 -0.639235 0.100000 
1.808508 -0.603125 0.100000 
1.785408 -0.571517 0.100000 
1.761019 -0.543490 0.100000 
1.727516 -0.506376 0.100000 
1.697448 -0.473513 0.100000 
1.669153 -0.443166 0.100000 
1.641206 -0.413897 0.100000 
1.613136 -0.385452 0.100000 
1.584706 -0.357871 0.100000 
1.555659 -0.331202 0.100000 
1.525641 -0.305517 0.100000 
1.494277 -0.280898 0.100000 
1.461319 -0.257471 0.100000 
1.427036 -0.235557 0.100000 
1.391824 -0.215524 0.100000 
1.355525 -0.197608 0.100000 
1.315767 -0.181509 0.100000 
1.269624 -0.166793 0.100000 
1.233375 -0.157571 0.100000 
1.189156 -0.148840 0.100000 
1.133136 -0.140669 0.100000 
1.099503 -0.136815 0.100000 
1.061484 -0.133127 0.100000 
1.018598 -0.129613 0.100000 
1.834416 -0.707951 0.100000 
1.834126 -0.684957 0.100000 
1.830668 -0.663548 0.100000 
1.824512 -0.643610 0.100000 
1.805985 -0.607683 0.100000 
1.782297 -0.576253 0.100000 
1.757204 -0.548400 0.100000 
1.722749 -0.511540 0.100000 
1.691889 -0.478926 0.100000 
1.662931 -0.448833 0.100000 
1.634421 -0.419829 0.100000 
1.605854 -0.391656 0.100000 
1.576959 -0.364353 0.100000 
1.547451 -0.337962 0.100000 
1.516980 -0.312554 0.100000 
1.485182 -0.288207 0.100000 
1.451820 -0.265047 0.100000 
1.417188 -0.243394 0.100000 
1.381709 -0.223614 0.100000 
1.345331 -0.205943 0.100000 
1.306107 -0.190083 0.100000 
1.261612 -0.175605 0.100000 
1.227213 -0.166466 0.100000 
1.185017 -0.157371 0.100000 
1.130646 -0.147942 0.100000 
1.097527 -0.142984 0.100000 
1.059723 -0.137800 0.100000 
1.016686 -0.132344 0.100000 
