VARIABLES = "CoordinateX", "CoordinateY", "CoordinateZ"
Zone T="FFD_vol0" I=10 J=2 K=2
DATAPACKING=POINT
1.000000 -0.099509 0.000000 
0.969214 0.053751 0.000000 
0.877406 0.193986 0.000000 
0.740031 0.309172 0.000000 
0.585055 0.369244 0.000000 
0.414945 0.369244 0.000000 
0.259970 0.309172 0.000000 
0.122594 0.193986 0.000000 
0.030786 0.053751 0.000000 
0.000000 -0.099509 0.000000 
1.000000 -0.109509 0.000000 
0.965146 0.030303 0.000000 
0.880763 0.156401 0.000000 
0.744454 0.273290 0.000000 
0.590302 0.337256 0.000000 
0.409699 0.337256 0.000000 
0.255546 0.273290 0.000000 
0.119237 0.156401 0.000000 
0.034854 0.030303 0.000000 
0.000000 -0.109509 0.000000 
1.000000 -0.099509 0.100000 
0.969214 0.053751 0.100000 
0.877406 0.193986 0.100000 
0.740031 0.309172 0.100000 
0.585055 0.369244 0.100000 
0.414945 0.369244 0.100000 
0.259970 0.309172 0.100000 
0.122594 0.193986 0.100000 
0.030786 0.053751 0.100000 
0.000000 -0.099509 0.100000 
1.000000 -0.109509 0.100000 
0.965146 0.030303 0.100000 
0.880763 0.156401 0.100000 
0.744454 0.273290 0.100000 
0.590302 0.337256 0.100000 
0.409699 0.337256 0.100000 
0.255546 0.273290 0.100000 
0.119237 0.156401 0.100000 
0.034854 0.030303 0.100000 
0.000000 -0.109509 0.100000 
Zone T="embedding_vol" I=28 J=4 K=4
DATAPACKING=POINT
1.000000 -0.099509 0.000000 
0.989199 -0.051409 0.000000 
0.977403 -0.008914 0.000000 
0.964737 0.028529 0.000000 
0.937294 0.090477 0.000000 
0.907869 0.138866 0.000000 
0.877462 0.178125 0.000000 
0.831522 0.227342 0.000000 
0.784955 0.267468 0.000000 
0.737097 0.299987 0.000000 
0.687409 0.326104 0.000000 
0.635858 0.345913 0.000000 
0.582533 0.359232 0.000000 
0.527698 0.365907 0.000000 
0.472302 0.365907 0.000000 
0.417467 0.359232 0.000000 
0.364142 0.345913 0.000000 
0.312591 0.326104 0.000000 
0.262903 0.299987 0.000000 
0.215045 0.267468 0.000000 
0.168478 0.227342 0.000000 
0.122538 0.178125 0.000000 
0.092131 0.138866 0.000000 
0.062706 0.090477 0.000000 
0.035263 0.028529 0.000000 
0.022597 -0.008914 0.000000 
0.010801 -0.051409 0.000000 
0.000000 -0.099509 0.000000 
1.000000 -0.102842 0.000000 
0.988839 -0.056159 0.000000 
0.976848 -0.014931 0.000000 
0.964128 0.021390 0.000000 
0.936894 0.081496 0.000000 
0.907928 0.128531 0.000000 
0.878021 0.166870 0.000000 
0.832593 0.215384 0.000000 
0.786286 0.255401 0.000000 
0.738558 0.288148 0.000000 
0.688948 0.314604 0.000000 
0.637328 0.334759 0.000000 
0.583653 0.348353 0.000000 
0.528118 0.355172 0.000000 
0.471882 0.355172 0.000000 
0.416347 0.348353 0.000000 
0.362672 0.334759 0.000000 
0.311052 0.314604 0.000000 
0.261442 0.288148 0.000000 
0.213714 0.255401 0.000000 
0.167407 0.215384 0.000000 
0.121979 0.166870 0.000000 
0.092072 0.128531 0.000000 
0.063106 0.081496 0.000000 
0.035872 0.021390 0.000000 
0.023152 -0.014931 0.000000 
0.011161 -0.056159 0.000000 
0.000000 -0.102842 0.000000 
1.000000 -0.106175 0.000000 
0.988478 -0.060909 0.000000 
0.976294 -0.020947 0.000000 
0.963520 0.014251 0.000000 
0.936495 0.072514 0.000000 
0.907987 0.118195 0.000000 
0.878581 0.155614 0.000000 
0.833664 0.203427 0.000000 
0.787618 0.243334 0.000000 
0.740019 0.276309 0.000000 
0.690487 0.303104 0.000000 
0.638799 0.323604 0.000000 
0.584773 0.337474 0.000000 
0.528538 0.344437 0.000000 
0.471462 0.344437 0.000000 
0.415227 0.337474 0.000000 
0.361201 0.323604 0.000000 
0.309513 0.303104 0.000000 
0.259981 0.276309 0.000000 
0.212382 0.243334 0.000000 
0.166336 0.203427 0.000000 
0.121419 0.155614 0.000000 
0.092013 0.118195 0.000000 
0.063505 0.072514 0.000000 
0.036480 0.014251 0.000000 
0.023706 -0.020947 0.000000 
0.011522 -0.060909 0.000000 
0.000000 -0.106175 0.000000 
1.000000 -0.109509 0.000000 
0.988118 -0.065659 0.000000 
0.975740 -0.026963 0.000000 
0.962912 0.007113 0.000000 
0.936096 0.063532 0.000000 
0.908047 0.107860 0.000000 
0.879140 0.144358 0.000000 
0.834736 0.191469 0.000000 
0.788949 0.231268 0.000000 
0.741480 0.264470 0.000000 
0.692025 0.291604 0.000000 
0.640269 0.312449 0.000000 
0.585893 0.326595 0.000000 
0.528958 0.333702 0.000000 
0.471042 0.333702 0.000000 
0.414107 0.326595 0.000000 
0.359731 0.312449 0.000000 
0.307975 0.291604 0.000000 
0.258520 0.264470 0.000000 
0.211051 0.231268 0.000000 
0.165264 0.191469 0.000000 
0.120860 0.144358 0.000000 
0.091953 0.107860 0.000000 
0.063904 0.063532 0.000000 
0.037088 0.007113 0.000000 
0.024260 -0.026963 0.000000 
0.011882 -0.065659 0.000000 
0.000000 -0.109509 0.000000 
1.000000 -0.099509 0.033333 
0.989199 -0.051409 0.033333 
0.977403 -0.008914 0.033333 
0.964737 0.028529 0.033333 
0.937294 0.090477 0.033333 
0.907869 0.138866 0.033333 
0.877462 0.178125 0.033333 
0.831522 0.227342 0.033333 
0.784955 0.267468 0.033333 
0.737097 0.299987 0.033333 
0.687409 0.326104 0.033333 
0.635858 0.345913 0.033333 
0.582533 0.359232 0.033333 
0.527698 0.365907 0.033333 
0.472302 0.365907 0.033333 
0.417467 0.359232 0.033333 
0.364142 0.345913 0.033333 
0.312591 0.326104 0.033333 
0.262903 0.299987 0.033333 
0.215045 0.267468 0.033333 
0.168478 0.227342 0.033333 
0.122538 0.178125 0.033333 
0.092131 0.138866 0.033333 
0.062706 0.090477 0.033333 
0.035263 0.028529 0.033333 
0.022597 -0.008914 0.033333 
0.010801 -0.051409 0.033333 
0.000000 -0.099509 0.033333 
1.000000 -0.102842 0.033333 
0.988839 -0.056159 0.033333 
0.976848 -0.014931 0.033333 
0.964128 0.021390 0.033333 
0.936894 0.081496 0.033333 
0.907928 0.128531 0.033333 
0.878021 0.166870 0.033333 
0.832593 0.215384 0.033333 
0.786286 0.255401 0.033333 
0.738558 0.288148 0.033333 
0.688948 0.314604 0.033333 
0.637328 0.334759 0.033333 
0.583653 0.348353 0.033333 
0.528118 0.355172 0.033333 
0.471882 0.355172 0.033333 
0.416347 0.348353 0.033333 
0.362672 0.334759 0.033333 
0.311052 0.314604 0.033333 
0.261442 0.288148 0.033333 
0.213714 0.255401 0.033333 
0.167407 0.215384 0.033333 
0.121979 0.166870 0.033333 
0.092072 0.128531 0.033333 
0.063106 0.081496 0.033333 
0.035872 0.021390 0.033333 
0.023152 -0.014931 0.033333 
0.011161 -0.056159 0.033333 
0.000000 -0.102842 0.033333 
1.000000 -0.106175 0.033333 
0.988478 -0.060909 0.033333 
0.976294 -0.020947 0.033333 
0.963520 0.014251 0.033333 
0.936495 0.072514 0.033333 
0.907987 0.118195 0.033333 
0.878581 0.155614 0.033333 
0.833664 0.203427 0.033333 
0.787618 0.243334 0.033333 
0.740019 0.276309 0.033333 
0.690487 0.303104 0.033333 
0.638799 0.323604 0.033333 
0.584773 0.337474 0.033333 
0.528538 0.344437 0.033333 
0.471462 0.344437 0.033333 
0.415227 0.337474 0.033333 
0.361201 0.323604 0.033333 
0.309513 0.303104 0.033333 
0.259981 0.276309 0.033333 
0.212382 0.243334 0.033333 
0.166336 0.203427 0.033333 
0.121419 0.155614 0.033333 
0.092013 0.118195 0.033333 
0.063505 0.072514 0.033333 
0.036480 0.014251 0.033333 
0.023706 -0.020947 0.033333 
0.011522 -0.060909 0.033333 
0.000000 -0.106175 0.033333 
1.000000 -0.109509 0.033333 
0.988118 -0.065659 0.033333 
0.975740 -0.026963 0.033333 
0.962912 0.007113 0.033333 
0.936096 0.063532 0.033333 
0.908047 0.107860 0.033333 
0.879140 0.144358 0.033333 
0.834736 0.191469 0.033333 
0.788949 0.231268 0.033333 
0.741480 0.264470 0.033333 
0.692025 0.291604 0.033333 
0.640269 0.312449 0.033333 
0.585893 0.326595 0.033333 
0.528958 0.333702 0.033333 
0.471042 0.333702 0.033333 
0.414107 0.326595 0.033333 
0.359731 0.312449 0.033333 
0.307975 0.291604 0.033333 
0.258520 0.264470 0.033333 
0.211051 0.231268 0.033333 
0.165264 0.191469 0.033333 
0.120860 0.144358 0.033333 
0.091953 0.107860 0.033333 
0.063904 0.063532 0.033333 
0.037088 0.007113 0.033333 
0.024260 -0.026963 0.033333 
0.011882 -0.065659 0.033333 
0.000000 -0.109509 0.033333 
1.000000 -0.099509 0.066667 
0.989199 -0.051409 0.066667 
0.977403 -0.008914 0.066667 
0.964737 0.028529 0.066667 
0.937294 0.090477 0.066667 
0.907869 0.138866 0.066667 
0.877462 0.178125 0.066667 
0.831522 0.227342 0.066667 
0.784955 0.267468 0.066667 
0.737097 0.299987 0.066667 
0.687409 0.326104 0.066667 
0.635858 0.345913 0.066667 
0.582533 0.359232 0.066667 
0.527698 0.365907 0.066667 
0.472302 0.365907 0.066667 
0.417467 0.359232 0.066667 
0.364142 0.345913 0.066667 
0.312591 0.326104 0.066667 
0.262903 0.299987 0.066667 
0.215045 0.267468 0.066667 
0.168478 0.227342 0.066667 
0.122538 0.178125 0.066667 
0.092131 0.138866 0.066667 
0.062706 0.090477 0.066667 
0.035263 0.028529 0.066667 
0.022597 -0.008914 0.066667 
0.010801 -0.051409 0.066667 
0.000000 -0.099509 0.066667 
1.000000 -0.102842 0.066667 
0.988839 -0.056159 0.066667 
0.976848 -0.014931 0.066667 
0.964128 0.021390 0.066667 
0.936894 0.081496 0.066667 
0.907928 0.128531 0.066667 
0.878021 0.166870 0.066667 
0.832593 0.215384 0.066667 
0.786286 0.255401 0.066667 
0.738558 0.288148 0.066667 
0.688948 0.314604 0.066667 
0.637328 0.334759 0.066667 
0.583653 0.348353 0.066667 
0.528118 0.355172 0.066667 
0.471882 0.355172 0.066667 
0.416347 0.348353 0.066667 
0.362672 0.334759 0.066667 
0.311052 0.314604 0.066667 
0.261442 0.288148 0.066667 
0.213714 0.255401 0.066667 
0.167407 0.215384 0.066667 
0.121979 0.166870 0.066667 
0.092072 0.128531 0.066667 
0.063106 0.081496 0.066667 
0.035872 0.021390 0.066667 
0.023152 -0.014931 0.066667 
0.011161 -0.056159 0.066667 
0.000000 -0.102842 0.066667 
1.000000 -0.106175 0.066667 
0.988478 -0.060909 0.066667 
0.976294 -0.020947 0.066667 
0.963520 0.014251 0.066667 
0.936495 0.072514 0.066667 
0.907987 0.118195 0.066667 
0.878581 0.155614 0.066667 
0.833664 0.203427 0.066667 
0.787618 0.243334 0.066667 
0.740019 0.276309 0.066667 
0.690487 0.303104 0.066667 
0.638799 0.323604 0.066667 
0.584773 0.337474 0.066667 
0.528538 0.344437 0.066667 
0.471462 0.344437 0.066667 
0.415227 0.337474 0.066667 
0.361201 0.323604 0.066667 
0.309513 0.303104 0.066667 
0.259981 0.276309 0.066667 
0.212382 0.243334 0.066667 
0.166336 0.203427 0.066667 
0.121419 0.155614 0.066667 
0.092013 0.118195 0.066667 
0.063505 0.072514 0.066667 
0.036480 0.014251 0.066667 
0.023706 -0.020947 0.066667 
0.011522 -0.060909 0.066667 
0.000000 -0.106175 0.066667 
1.000000 -0.109509 0.066667 
0.988118 -0.065659 0.066667 
0.975740 -0.026963 0.066667 
0.962912 0.007113 0.066667 
0.936096 0.063532 0.066667 
0.908047 0.107860 0.066667 
0.879140 0.144358 0.066667 
0.834736 0.191469 0.066667 
0.788949 0.231268 0.066667 
0.741480 0.264470 0.066667 
0.692025 0.291604 0.066667 
0.640269 0.312449 0.066667 
0.585893 0.326595 0.066667 
0.528958 0.333702 0.066667 
0.471042 0.333702 0.066667 
0.414107 0.326595 0.066667 
0.359731 0.312449 0.066667 
0.307975 0.291604 0.066667 
0.258520 0.264470 0.066667 
0.211051 0.231268 0.066667 
0.165264 0.191469 0.066667 
0.120860 0.144358 0.066667 
0.091953 0.107860 0.066667 
0.063904 0.063532 0.066667 
0.037088 0.007113 0.066667 
0.024260 -0.026963 0.066667 
0.011882 -0.065659 0.066667 
0.000000 -0.109509 0.066667 
1.000000 -0.099509 0.100000 
0.989199 -0.051409 0.100000 
0.977403 -0.008914 0.100000 
0.964737 0.028529 0.100000 
0.937294 0.090477 0.100000 
0.907869 0.138866 0.100000 
0.877462 0.178125 0.100000 
0.831522 0.227342 0.100000 
0.784955 0.267468 0.100000 
0.737097 0.299987 0.100000 
0.687409 0.326104 0.100000 
0.635858 0.345913 0.100000 
0.582533 0.359232 0.100000 
0.527698 0.365907 0.100000 
0.472302 0.365907 0.100000 
0.417467 0.359232 0.100000 
0.364142 0.345913 0.100000 
0.312591 0.326104 0.100000 
0.262903 0.299987 0.100000 
0.215045 0.267468 0.100000 
0.168478 0.227342 0.100000 
0.122538 0.178125 0.100000 
0.092131 0.138866 0.100000 
0.062706 0.090477 0.100000 
0.035263 0.028529 0.100000 
0.022597 -0.008914 0.100000 
0.010801 -0.051409 0.100000 
0.000000 -0.099509 0.100000 
1.000000 -0.102842 0.100000 
0.988839 -0.056159 0.100000 
0.976848 -0.014931 0.100000 
0.964128 0.021390 0.100000 
0.936894 0.081496 0.100000 
0.907928 0.128531 0.100000 
0.878021 0.166870 0.100000 
0.832593 0.215384 0.100000 
0.786286 0.255401 0.100000 
0.738558 0.288148 0.100000 
0.688948 0.314604 0.100000 
0.637328 0.334759 0.100000 
0.583653 0.348353 0.100000 
0.528118 0.355172 0.100000 
0.471882 0.355172 0.100000 
0.416347 0.348353 0.100000 
0.362672 0.334759 0.100000 
0.311052 0.314604 0.100000 
0.261442 0.288148 0.100000 
0.213714 0.255401 0.100000 
0.167407 0.215384 0.100000 
0.121979 0.166870 0.100000 
0.092072 0.128531 0.100000 
0.063106 0.081496 0.100000 
0.035872 0.021390 0.100000 
0.023152 -0.014931 0.100000 
0.011161 -0.056159 0.100000 
0.000000 -0.102842 0.100000 
1.000000 -0.106175 0.100000 
0.988478 -0.060909 0.100000 
0.976294 -0.020947 0.100000 
0.963520 0.014251 0.100000 
0.936495 0.072514 0.100000 
0.907987 0.118195 0.100000 
0.878581 0.155614 0.100000 
0.833664 0.203427 0.100000 
0.787618 0.243334 0.100000 
0.740019 0.276309 0.100000 
0.690487 0.303104 0.100000 
0.638799 0.323604 0.100000 
0.584773 0.337474 0.100000 
0.528538 0.344437 0.100000 
0.471462 0.344437 0.100000 
0.415227 0.337474 0.100000 
0.361201 0.323604 0.100000 
0.309513 0.303104 0.100000 
0.259981 0.276309 0.100000 
0.212382 0.243334 0.100000 
0.166336 0.203427 0.100000 
0.121419 0.155614 0.100000 
0.092013 0.118195 0.100000 
0.063505 0.072514 0.100000 
0.036480 0.014251 0.100000 
0.023706 -0.020947 0.100000 
0.011522 -0.060909 0.100000 
0.000000 -0.106175 0.100000 
1.000000 -0.109509 0.100000 
0.988118 -0.065659 0.100000 
0.975740 -0.026963 0.100000 
0.962912 0.007113 0.100000 
0.936096 0.063532 0.100000 
0.908047 0.107860 0.100000 
0.879140 0.144358 0.100000 
0.834736 0.191469 0.100000 
0.788949 0.231268 0.100000 
0.741480 0.264470 0.100000 
0.692025 0.291604 0.100000 
0.640269 0.312449 0.100000 
0.585893 0.326595 0.100000 
0.528958 0.333702 0.100000 
0.471042 0.333702 0.100000 
0.414107 0.326595 0.100000 
0.359731 0.312449 0.100000 
0.307975 0.291604 0.100000 
0.258520 0.264470 0.100000 
0.211051 0.231268 0.100000 
0.165264 0.191469 0.100000 
0.120860 0.144358 0.100000 
0.091953 0.107860 0.100000 
0.063904 0.063532 0.100000 
0.037088 0.007113 0.100000 
0.024260 -0.026963 0.100000 
0.011882 -0.065659 0.100000 
0.000000 -0.109509 0.100000 
Zone T="FFD_vol1" I=10 J=2 K=2
DATAPACKING=POINT
1.742833 -0.848871 0.000000 
1.718381 -0.663603 0.000000 
1.649681 -0.556685 0.000000 
1.575259 -0.426062 0.000000 
1.490295 -0.322479 0.000000 
1.398108 -0.232280 0.000000 
1.298065 -0.164839 0.000000 
1.189553 -0.111295 0.000000 
1.075395 -0.075459 0.000000 
0.912157 -0.176041 0.000000 
1.734877 -0.861588 0.000000 
1.709031 -0.677237 0.000000 
1.637981 -0.572096 0.000000 
1.560967 -0.443772 0.000000 
1.473503 -0.342818 0.000000 
1.379232 -0.255244 0.000000 
1.277662 -0.190238 0.000000 
1.168289 -0.138867 0.000000 
1.053843 -0.104472 0.000000 
0.906853 -0.184519 0.000000 
1.742833 -0.848871 0.100000 
1.718381 -0.663603 0.100000 
1.649681 -0.556685 0.100000 
1.575259 -0.426062 0.100000 
1.490295 -0.322479 0.100000 
1.398108 -0.232280 0.100000 
1.298065 -0.164839 0.100000 
1.189553 -0.111295 0.100000 
1.075395 -0.075459 0.100000 
0.912157 -0.176041 0.100000 
1.734877 -0.861588 0.100000 
1.709031 -0.677237 0.100000 
1.637981 -0.572096 0.100000 
1.560967 -0.443772 0.100000 
1.473503 -0.342818 0.100000 
1.379232 -0.255244 0.100000 
1.277662 -0.190238 0.100000 
1.168289 -0.138867 0.100000 
1.053843 -0.104472 0.100000 
0.906853 -0.184519 0.100000 
Zone T="embedding_vol" I=28 J=4 K=4
DATAPACKING=POINT
1.742833 -0.848871 0.000000 
1.734336 -0.791823 0.000000 
1.725226 -0.743494 0.000000 
1.715625 -0.702841 0.000000 
1.695430 -0.640386 0.000000 
1.674718 -0.596104 0.000000 
1.654453 -0.561644 0.000000 
1.626222 -0.514780 0.000000 
1.599723 -0.471122 0.000000 
1.573502 -0.430569 0.000000 
1.546372 -0.392952 0.000000 
1.518194 -0.357835 0.000000 
1.489091 -0.324710 0.000000 
1.459161 -0.293214 0.000000 
1.428404 -0.263553 0.000000 
1.396799 -0.236073 0.000000 
1.364320 -0.211009 0.000000 
1.330946 -0.188146 0.000000 
1.296654 -0.167155 0.000000 
1.261089 -0.147676 0.000000 
1.222574 -0.129219 0.000000 
1.179099 -0.111260 0.000000 
1.145417 -0.100634 0.000000 
1.102335 -0.097802 0.000000 
1.043553 -0.110569 0.000000 
1.006305 -0.125241 0.000000 
0.962769 -0.146740 0.000000 
0.912157 -0.176041 0.000000 
1.740181 -0.853110 0.000000 
1.731532 -0.796163 0.000000 
1.722275 -0.747935 0.000000 
1.712532 -0.707382 0.000000 
1.692068 -0.645123 0.000000 
1.671104 -0.601034 0.000000 
1.650604 -0.566761 0.000000 
1.622050 -0.520168 0.000000 
1.595250 -0.476775 0.000000 
1.568743 -0.436490 0.000000 
1.541333 -0.399153 0.000000 
1.512882 -0.364323 0.000000 
1.483517 -0.331489 0.000000 
1.453340 -0.300285 0.000000 
1.422354 -0.270913 0.000000 
1.390538 -0.243717 0.000000 
1.357869 -0.218931 0.000000 
1.324327 -0.196337 0.000000 
1.289890 -0.175607 0.000000 
1.254204 -0.156380 0.000000 
1.215590 -0.138167 0.000000 
1.172035 -0.120450 0.000000 
1.138368 -0.109907 0.000000 
1.095667 -0.106691 0.000000 
1.037989 -0.118141 0.000000 
1.001676 -0.131659 0.000000 
0.959391 -0.151595 0.000000 
0.910389 -0.178867 0.000000 
1.737529 -0.857349 0.000000 
1.728727 -0.800504 0.000000 
1.719324 -0.752377 0.000000 
1.709439 -0.711923 0.000000 
1.688705 -0.649861 0.000000 
1.667490 -0.605964 0.000000 
1.646756 -0.571877 0.000000 
1.617877 -0.525555 0.000000 
1.590777 -0.482427 0.000000 
1.563984 -0.442412 0.000000 
1.536294 -0.405354 0.000000 
1.507570 -0.370811 0.000000 
1.477943 -0.338269 0.000000 
1.447519 -0.307356 0.000000 
1.416303 -0.278272 0.000000 
1.384276 -0.251361 0.000000 
1.351418 -0.226852 0.000000 
1.317707 -0.204528 0.000000 
1.283125 -0.184059 0.000000 
1.247319 -0.165083 0.000000 
1.208606 -0.147116 0.000000 
1.164971 -0.129640 0.000000 
1.131319 -0.119179 0.000000 
1.088999 -0.115579 0.000000 
1.032425 -0.125712 0.000000 
0.997047 -0.138076 0.000000 
0.956012 -0.156450 0.000000 
0.908621 -0.181693 0.000000 
1.734877 -0.861588 0.000000 
1.725923 -0.804845 0.000000 
1.716373 -0.756818 0.000000 
1.706346 -0.716464 0.000000 
1.685343 -0.654599 0.000000 
1.663876 -0.610894 0.000000 
1.642908 -0.576994 0.000000 
1.613705 -0.530942 0.000000 
1.586305 -0.488080 0.000000 
1.559225 -0.448334 0.000000 
1.531254 -0.411555 0.000000 
1.502257 -0.377299 0.000000 
1.472369 -0.345048 0.000000 
1.441698 -0.314427 0.000000 
1.410253 -0.285632 0.000000 
1.378015 -0.259005 0.000000 
1.344966 -0.234774 0.000000 
1.311088 -0.212719 0.000000 
1.276361 -0.192511 0.000000 
1.240434 -0.173786 0.000000 
1.201622 -0.156064 0.000000 
1.157906 -0.138830 0.000000 
1.124270 -0.128452 0.000000 
1.082330 -0.124468 0.000000 
1.026861 -0.133284 0.000000 
0.992419 -0.144494 0.000000 
0.952634 -0.161305 0.000000 
0.906853 -0.184519 0.000000 
1.742833 -0.848871 0.033333 
1.734336 -0.791823 0.033333 
1.725226 -0.743494 0.033333 
1.715625 -0.702841 0.033333 
1.695430 -0.640386 0.033333 
1.674718 -0.596104 0.033333 
1.654453 -0.561644 0.033333 
1.626222 -0.514780 0.033333 
1.599723 -0.471122 0.033333 
1.573502 -0.430569 0.033333 
1.546372 -0.392952 0.033333 
1.518194 -0.357835 0.033333 
1.489091 -0.324710 0.033333 
1.459161 -0.293214 0.033333 
1.428404 -0.263553 0.033333 
1.396799 -0.236073 0.033333 
1.364320 -0.211009 0.033333 
1.330946 -0.188146 0.033333 
1.296654 -0.167155 0.033333 
1.261089 -0.147676 0.033333 
1.222574 -0.129219 0.033333 
1.179099 -0.111260 0.033333 
1.145417 -0.100634 0.033333 
1.102335 -0.097802 0.033333 
1.043553 -0.110569 0.033333 
1.006305 -0.125241 0.033333 
0.962769 -0.146740 0.033333 
0.912157 -0.176041 0.033333 
1.740181 -0.853110 0.033333 
1.731532 -0.796163 0.033333 
1.722275 -0.747935 0.033333 
1.712532 -0.707382 0.033333 
1.692068 -0.645123 0.033333 
1.671104 -0.601034 0.033333 
1.650604 -0.566761 0.033333 
1.622050 -0.520168 0.033333 
1.595250 -0.476775 0.033333 
1.568743 -0.436490 0.033333 
1.541333 -0.399153 0.033333 
1.512882 -0.364323 0.033333 
1.483517 -0.331489 0.033333 
1.453340 -0.300285 0.033333 
1.422354 -0.270913 0.033333 
1.390538 -0.243717 0.033333 
1.357869 -0.218931 0.033333 
1.324327 -0.196337 0.033333 
1.289890 -0.175607 0.033333 
1.254204 -0.156380 0.033333 
1.215590 -0.138167 0.033333 
1.172035 -0.120450 0.033333 
1.138368 -0.109907 0.033333 
1.095667 -0.106691 0.033333 
1.037989 -0.118141 0.033333 
1.001676 -0.131659 0.033333 
0.959391 -0.151595 0.033333 
0.910389 -0.178867 0.033333 
1.737529 -0.857349 0.033333 
1.728727 -0.800504 0.033333 
1.719324 -0.752377 0.033333 
1.709439 -0.711923 0.033333 
1.688705 -0.649861 0.033333 
1.667490 -0.605964 0.033333 
1.646756 -0.571877 0.033333 
1.617877 -0.525555 0.033333 
1.590777 -0.482427 0.033333 
1.563984 -0.442412 0.033333 
1.536294 -0.405354 0.033333 
1.507570 -0.370811 0.033333 
1.477943 -0.338269 0.033333 
1.447519 -0.307356 0.033333 
1.416303 -0.278272 0.033333 
1.384276 -0.251361 0.033333 
1.351418 -0.226852 0.033333 
1.317707 -0.204528 0.033333 
1.283125 -0.184059 0.033333 
1.247319 -0.165083 0.033333 
1.208606 -0.147116 0.033333 
1.164971 -0.129640 0.033333 
1.131319 -0.119179 0.033333 
1.088999 -0.115579 0.033333 
1.032425 -0.125712 0.033333 
0.997047 -0.138076 0.033333 
0.956012 -0.156450 0.033333 
0.908621 -0.181693 0.033333 
1.734877 -0.861588 0.033333 
1.725923 -0.804845 0.033333 
1.716373 -0.756818 0.033333 
1.706346 -0.716464 0.033333 
1.685343 -0.654599 0.033333 
1.663876 -0.610894 0.033333 
1.642908 -0.576994 0.033333 
1.613705 -0.530942 0.033333 
1.586305 -0.488080 0.033333 
1.559225 -0.448334 0.033333 
1.531254 -0.411555 0.033333 
1.502257 -0.377299 0.033333 
1.472369 -0.345048 0.033333 
1.441698 -0.314427 0.033333 
1.410253 -0.285632 0.033333 
1.378015 -0.259005 0.033333 
1.344966 -0.234774 0.033333 
1.311088 -0.212719 0.033333 
1.276361 -0.192511 0.033333 
1.240434 -0.173786 0.033333 
1.201622 -0.156064 0.033333 
1.157906 -0.138830 0.033333 
1.124270 -0.128452 0.033333 
1.082330 -0.124468 0.033333 
1.026861 -0.133284 0.033333 
0.992419 -0.144494 0.033333 
0.952634 -0.161305 0.033333 
0.906853 -0.184519 0.033333 
1.742833 -0.848871 0.066667 
1.734336 -0.791823 0.066667 
1.725226 -0.743494 0.066667 
1.715625 -0.702841 0.066667 
1.695430 -0.640386 0.066667 
1.674718 -0.596104 0.066667 
1.654453 -0.561644 0.066667 
1.626222 -0.514780 0.066667 
1.599723 -0.471122 0.066667 
1.573502 -0.430569 0.066667 
1.546372 -0.392952 0.066667 
1.518194 -0.357835 0.066667 
1.489091 -0.324710 0.066667 
1.459161 -0.293214 0.066667 
1.428404 -0.263553 0.066667 
1.396799 -0.236073 0.066667 
1.364320 -0.211009 0.066667 
1.330946 -0.188146 0.066667 
1.296654 -0.167155 0.066667 
1.261089 -0.147676 0.066667 
1.222574 -0.129219 0.066667 
1.179099 -0.111260 0.066667 
1.145417 -0.100634 0.066667 
1.102335 -0.097802 0.066667 
1.043553 -0.110569 0.066667 
1.006305 -0.125241 0.066667 
0.962769 -0.146740 0.066667 
0.912157 -0.176041 0.066667 
1.740181 -0.853110 0.066667 
1.731532 -0.796163 0.066667 
1.722275 -0.747935 0.066667 
1.712532 -0.707382 0.066667 
1.692068 -0.645123 0.066667 
1.671104 -0.601034 0.066667 
1.650604 -0.566761 0.066667 
1.622050 -0.520168 0.066667 
1.595250 -0.476775 0.066667 
1.568743 -0.436490 0.066667 
1.541333 -0.399153 0.066667 
1.512882 -0.364323 0.066667 
1.483517 -0.331489 0.066667 
1.453340 -0.300285 0.066667 
1.422354 -0.270913 0.066667 
1.390538 -0.243717 0.066667 
1.357869 -0.218931 0.066667 
1.324327 -0.196337 0.066667 
1.289890 -0.175607 0.066667 
1.254204 -0.156380 0.066667 
1.215590 -0.138167 0.066667 
1.172035 -0.120450 0.066667 
1.138368 -0.109907 0.066667 
1.095667 -0.106691 0.066667 
1.037989 -0.118141 0.066667 
1.001676 -0.131659 0.066667 
0.959391 -0.151595 0.066667 
0.910389 -0.178867 0.066667 
1.737529 -0.857349 0.066667 
1.728727 -0.800504 0.066667 
1.719324 -0.752377 0.066667 
1.709439 -0.711923 0.066667 
1.688705 -0.649861 0.066667 
1.667490 -0.605964 0.066667 
1.646756 -0.571877 0.066667 
1.617877 -0.525555 0.066667 
1.590777 -0.482427 0.066667 
1.563984 -0.442412 0.066667 
1.536294 -0.405354 0.066667 
1.507570 -0.370811 0.066667 
1.477943 -0.338269 0.066667 
1.447519 -0.307356 0.066667 
1.416303 -0.278272 0.066667 
1.384276 -0.251361 0.066667 
1.351418 -0.226852 0.066667 
1.317707 -0.204528 0.066667 
1.283125 -0.184059 0.066667 
1.247319 -0.165083 0.066667 
1.208606 -0.147116 0.066667 
1.164971 -0.129640 0.066667 
1.131319 -0.119179 0.066667 
1.088999 -0.115579 0.066667 
1.032425 -0.125712 0.066667 
0.997047 -0.138076 0.066667 
0.956012 -0.156450 0.066667 
0.908621 -0.181693 0.066667 
1.734877 -0.861588 0.066667 
1.725923 -0.804845 0.066667 
1.716373 -0.756818 0.066667 
1.706346 -0.716464 0.066667 
1.685343 -0.654599 0.066667 
1.663876 -0.610894 0.066667 
1.642908 -0.576994 0.066667 
1.613705 -0.530942 0.066667 
1.586305 -0.488080 0.066667 
1.559225 -0.448334 0.066667 
1.531254 -0.411555 0.066667 
1.502257 -0.377299 0.066667 
1.472369 -0.345048 0.066667 
1.441698 -0.314427 0.066667 
1.410253 -0.285632 0.066667 
1.378015 -0.259005 0.066667 
1.344966 -0.234774 0.066667 
1.311088 -0.212719 0.066667 
1.276361 -0.192511 0.066667 
1.240434 -0.173786 0.066667 
1.201622 -0.156064 0.066667 
1.157906 -0.138830 0.066667 
1.124270 -0.128452 0.066667 
1.082330 -0.124468 0.066667 
1.026861 -0.133284 0.066667 
0.992419 -0.144494 0.066667 
0.952634 -0.161305 0.066667 
0.906853 -0.184519 0.066667 
1.742833 -0.848871 0.100000 
1.734336 -0.791823 0.100000 
1.725226 -0.743494 0.100000 
1.715625 -0.702841 0.100000 
1.695430 -0.640386 0.100000 
1.674718 -0.596104 0.100000 
1.654453 -0.561644 0.100000 
1.626222 -0.514780 0.100000 
1.599723 -0.471122 0.100000 
1.573502 -0.430569 0.100000 
1.546372 -0.392952 0.100000 
1.518194 -0.357835 0.100000 
1.489091 -0.324710 0.100000 
1.459161 -0.293214 0.100000 
1.428404 -0.263553 0.100000 
1.396799 -0.236073 0.100000 
1.364320 -0.211009 0.100000 
1.330946 -0.188146 0.100000 
1.296654 -0.167155 0.100000 
1.261089 -0.147676 0.100000 
1.222574 -0.129219 0.100000 
1.179099 -0.111260 0.100000 
1.145417 -0.100634 0.100000 
1.102335 -0.097802 0.100000 
1.043553 -0.110569 0.100000 
1.006305 -0.125241 0.100000 
0.962769 -0.146740 0.100000 
0.912157 -0.176041 0.100000 
1.740181 -0.853110 0.100000 
1.731532 -0.796163 0.100000 
1.722275 -0.747935 0.100000 
1.712532 -0.707382 0.100000 
1.692068 -0.645123 0.100000 
1.671104 -0.601034 0.100000 
1.650604 -0.566761 0.100000 
1.622050 -0.520168 0.100000 
1.595250 -0.476775 0.100000 
1.568743 -0.436490 0.100000 
1.541333 -0.399153 0.100000 
1.512882 -0.364323 0.100000 
1.483517 -0.331489 0.100000 
1.453340 -0.300285 0.100000 
1.422354 -0.270913 0.100000 
1.390538 -0.243717 0.100000 
1.357869 -0.218931 0.100000 
1.324327 -0.196337 0.100000 
1.289890 -0.175607 0.100000 
1.254204 -0.156380 0.100000 
1.215590 -0.138167 0.100000 
1.172035 -0.120450 0.100000 
1.138368 -0.109907 0.100000 
1.095667 -0.106691 0.100000 
1.037989 -0.118141 0.100000 
1.001676 -0.131659 0.100000 
0.959391 -0.151595 0.100000 
0.910389 -0.178867 0.100000 
1.737529 -0.857349 0.100000 
1.728727 -0.800504 0.100000 
1.719324 -0.752377 0.100000 
1.709439 -0.711923 0.100000 
1.688705 -0.649861 0.100000 
1.667490 -0.605964 0.100000 
1.646756 -0.571877 0.100000 
1.617877 -0.525555 0.100000 
1.590777 -0.482427 0.100000 
1.563984 -0.442412 0.100000 
1.536294 -0.405354 0.100000 
1.507570 -0.370811 0.100000 
1.477943 -0.338269 0.100000 
1.447519 -0.307356 0.100000 
1.416303 -0.278272 0.100000 
1.384276 -0.251361 0.100000 
1.351418 -0.226852 0.100000 
1.317707 -0.204528 0.100000 
1.283125 -0.184059 0.100000 
1.247319 -0.165083 0.100000 
1.208606 -0.147116 0.100000 
1.164971 -0.129640 0.100000 
1.131319 -0.119179 0.100000 
1.088999 -0.115579 0.100000 
1.032425 -0.125712 0.100000 
0.997047 -0.138076 0.100000 
0.956012 -0.156450 0.100000 
0.908621 -0.181693 0.100000 
1.734877 -0.861588 0.100000 
1.725923 -0.804845 0.100000 
1.716373 -0.756818 0.100000 
1.706346 -0.716464 0.100000 
1.685343 -0.654599 0.100000 
1.663876 -0.610894 0.100000 
1.642908 -0.576994 0.100000 
1.613705 -0.530942 0.100000 
1.586305 -0.488080 0.100000 
1.559225 -0.448334 0.100000 
1.531254 -0.411555 0.100000 
1.502257 -0.377299 0.100000 
1.472369 -0.345048 0.100000 
1.441698 -0.314427 0.100000 
1.410253 -0.285632 0.100000 
1.378015 -0.259005 0.100000 
1.344966 -0.234774 0.100000 
1.311088 -0.212719 0.100000 
1.276361 -0.192511 0.100000 
1.240434 -0.173786 0.100000 
1.201622 -0.156064 0.100000 
1.157906 -0.138830 0.100000 
1.124270 -0.128452 0.100000 
1.082330 -0.124468 0.100000 
1.026861 -0.133284 0.100000 
0.992419 -0.144494 0.100000 
0.952634 -0.161305 0.100000 
0.906853 -0.184519 0.100000 
