VARIABLES = "CoordinateX", "CoordinateY", "CoordinateZ"
Zone T="FFD_vol0" I=10 J=2 K=2
DATAPACKING=POINT
1.000000 -0.021755 0.000000 
0.973716 0.105574 0.000000 
0.899672 0.198088 0.000000 
0.763006 0.303870 0.000000 
0.615441 0.337396 0.000000 
0.384559 0.337396 0.000000 
0.236994 0.303870 0.000000 
0.100328 0.198088 0.000000 
0.026284 0.105574 0.000000 
0.000000 -0.021755 0.000000 
1.000000 -0.031755 0.000000 
0.962798 0.007691 0.000000 
0.913486 0.048789 0.000000 
0.797974 0.147051 0.000000 
0.643930 0.205876 0.000000 
0.356070 0.205876 0.000000 
0.202026 0.147051 0.000000 
0.086514 0.048789 0.000000 
0.037202 0.007691 0.000000 
0.000000 -0.031755 0.000000 
1.000000 -0.021755 0.100000 
0.973716 0.105574 0.100000 
0.899672 0.198088 0.100000 
0.763006 0.303870 0.100000 
0.615441 0.337396 0.100000 
0.384559 0.337396 0.100000 
0.236994 0.303870 0.100000 
0.100328 0.198088 0.100000 
0.026284 0.105574 0.100000 
0.000000 -0.021755 0.100000 
1.000000 -0.031755 0.100000 
0.962798 0.007691 0.100000 
0.913486 0.048789 0.100000 
0.797974 0.147051 0.100000 
0.643930 0.205876 0.100000 
0.356070 0.205876 0.100000 
0.202026 0.147051 0.100000 
0.086514 0.048789 0.100000 
0.037202 0.007691 0.100000 
0.000000 -0.031755 0.100000 
Zone T="embedding_vol" I=28 J=4 K=4
DATAPACKING=POINT
1.000000 -0.021755 0.000000 
0.990850 0.017789 0.000000 
0.980958 0.051950 0.000000 
0.970376 0.081349 0.000000 
0.947360 0.128352 0.000000 
0.922228 0.163774 0.000000 
0.895405 0.192590 0.000000 
0.852785 0.231274 0.000000 
0.807865 0.264837 0.000000 
0.761190 0.291827 0.000000 
0.712765 0.311270 0.000000 
0.660448 0.324119 0.000000 
0.601555 0.331809 0.000000 
0.534880 0.335534 0.000000 
0.465120 0.335534 0.000000 
0.398445 0.331809 0.000000 
0.339552 0.324119 0.000000 
0.287235 0.311270 0.000000 
0.238810 0.291827 0.000000 
0.192135 0.264837 0.000000 
0.147215 0.231274 0.000000 
0.104595 0.192590 0.000000 
0.077772 0.163774 0.000000 
0.052640 0.128352 0.000000 
0.029624 0.081349 0.000000 
0.019042 0.051950 0.000000 
0.009150 0.017789 0.000000 
0.000000 -0.021755 0.000000 
1.000000 -0.025088 0.000000 
0.989912 0.005435 0.000000 
0.979586 0.031972 0.000000 
0.969004 0.055005 0.000000 
0.946999 0.092494 0.000000 
0.923753 0.121767 0.000000 
0.899124 0.146691 0.000000 
0.859421 0.181885 0.000000 
0.816683 0.214084 0.000000 
0.771310 0.241378 0.000000 
0.723143 0.262296 0.000000 
0.669776 0.277119 0.000000 
0.608246 0.286563 0.000000 
0.537318 0.291225 0.000000 
0.462682 0.291225 0.000000 
0.391754 0.286563 0.000000 
0.330224 0.277119 0.000000 
0.276857 0.262296 0.000000 
0.228690 0.241378 0.000000 
0.183317 0.214084 0.000000 
0.140579 0.181885 0.000000 
0.100876 0.146691 0.000000 
0.076247 0.121767 0.000000 
0.053001 0.092494 0.000000 
0.030996 0.055005 0.000000 
0.020414 0.031972 0.000000 
0.010088 0.005435 0.000000 
0.000000 -0.025088 0.000000 
1.000000 -0.028422 0.000000 
0.988975 -0.006918 0.000000 
0.978215 0.011995 0.000000 
0.967632 0.028662 0.000000 
0.946637 0.056636 0.000000 
0.925278 0.079760 0.000000 
0.902843 0.100791 0.000000 
0.866057 0.132496 0.000000 
0.825501 0.163330 0.000000 
0.781431 0.190928 0.000000 
0.733520 0.213323 0.000000 
0.679104 0.230119 0.000000 
0.614937 0.241318 0.000000 
0.539756 0.246917 0.000000 
0.460244 0.246917 0.000000 
0.385063 0.241318 0.000000 
0.320896 0.230119 0.000000 
0.266480 0.213323 0.000000 
0.218569 0.190928 0.000000 
0.174499 0.163330 0.000000 
0.133943 0.132496 0.000000 
0.097157 0.100791 0.000000 
0.074722 0.079760 0.000000 
0.053363 0.056636 0.000000 
0.032368 0.028662 0.000000 
0.021785 0.011995 0.000000 
0.011025 -0.006918 0.000000 
0.000000 -0.028422 0.000000 
1.000000 -0.031755 0.000000 
0.988037 -0.019272 0.000000 
0.976844 -0.007983 0.000000 
0.966259 0.002318 0.000000 
0.946275 0.020778 0.000000 
0.926804 0.037753 0.000000 
0.906562 0.054892 0.000000 
0.872693 0.083108 0.000000 
0.834319 0.112576 0.000000 
0.791552 0.140478 0.000000 
0.743897 0.164349 0.000000 
0.688432 0.183120 0.000000 
0.621627 0.196072 0.000000 
0.542195 0.202608 0.000000 
0.457805 0.202608 0.000000 
0.378373 0.196072 0.000000 
0.311568 0.183120 0.000000 
0.256103 0.164349 0.000000 
0.208448 0.140478 0.000000 
0.165681 0.112576 0.000000 
0.127307 0.083108 0.000000 
0.093438 0.054892 0.000000 
0.073196 0.037753 0.000000 
0.053725 0.020778 0.000000 
0.033741 0.002318 0.000000 
0.023156 -0.007983 0.000000 
0.011963 -0.019272 0.000000 
0.000000 -0.031755 0.000000 
1.000000 -0.021755 0.033333 
0.990850 0.017789 0.033333 
0.980958 0.051950 0.033333 
0.970376 0.081349 0.033333 
0.947360 0.128352 0.033333 
0.922228 0.163774 0.033333 
0.895405 0.192590 0.033333 
0.852785 0.231274 0.033333 
0.807865 0.264837 0.033333 
0.761190 0.291827 0.033333 
0.712765 0.311270 0.033333 
0.660448 0.324119 0.033333 
0.601555 0.331809 0.033333 
0.534880 0.335534 0.033333 
0.465120 0.335534 0.033333 
0.398445 0.331809 0.033333 
0.339552 0.324119 0.033333 
0.287235 0.311270 0.033333 
0.238810 0.291827 0.033333 
0.192135 0.264837 0.033333 
0.147215 0.231274 0.033333 
0.104595 0.192590 0.033333 
0.077772 0.163774 0.033333 
0.052640 0.128352 0.033333 
0.029624 0.081349 0.033333 
0.019042 0.051950 0.033333 
0.009150 0.017789 0.033333 
0.000000 -0.021755 0.033333 
1.000000 -0.025088 0.033333 
0.989912 0.005435 0.033333 
0.979586 0.031972 0.033333 
0.969004 0.055005 0.033333 
0.946999 0.092494 0.033333 
0.923753 0.121767 0.033333 
0.899124 0.146691 0.033333 
0.859421 0.181885 0.033333 
0.816683 0.214084 0.033333 
0.771310 0.241378 0.033333 
0.723143 0.262296 0.033333 
0.669776 0.277119 0.033333 
0.608246 0.286563 0.033333 
0.537318 0.291225 0.033333 
0.462682 0.291225 0.033333 
0.391754 0.286563 0.033333 
0.330224 0.277119 0.033333 
0.276857 0.262296 0.033333 
0.228690 0.241378 0.033333 
0.183317 0.214084 0.033333 
0.140579 0.181885 0.033333 
0.100876 0.146691 0.033333 
0.076247 0.121767 0.033333 
0.053001 0.092494 0.033333 
0.030996 0.055005 0.033333 
0.020414 0.031972 0.033333 
0.010088 0.005435 0.033333 
0.000000 -0.025088 0.033333 
1.000000 -0.028422 0.033333 
0.988975 -0.006918 0.033333 
0.978215 0.011995 0.033333 
0.967632 0.028662 0.033333 
0.946637 0.056636 0.033333 
0.925278 0.079760 0.033333 
0.902843 0.100791 0.033333 
0.866057 0.132496 0.033333 
0.825501 0.163330 0.033333 
0.781431 0.190928 0.033333 
0.733520 0.213323 0.033333 
0.679104 0.230119 0.033333 
0.614937 0.241318 0.033333 
0.539756 0.246917 0.033333 
0.460244 0.246917 0.033333 
0.385063 0.241318 0.033333 
0.320896 0.230119 0.033333 
0.266480 0.213323 0.033333 
0.218569 0.190928 0.033333 
0.174499 0.163330 0.033333 
0.133943 0.132496 0.033333 
0.097157 0.100791 0.033333 
0.074722 0.079760 0.033333 
0.053363 0.056636 0.033333 
0.032368 0.028662 0.033333 
0.021785 0.011995 0.033333 
0.011025 -0.006918 0.033333 
0.000000 -0.028422 0.033333 
1.000000 -0.031755 0.033333 
0.988037 -0.019272 0.033333 
0.976844 -0.007983 0.033333 
0.966259 0.002318 0.033333 
0.946275 0.020778 0.033333 
0.926804 0.037753 0.033333 
0.906562 0.054892 0.033333 
0.872693 0.083108 0.033333 
0.834319 0.112576 0.033333 
0.791552 0.140478 0.033333 
0.743897 0.164349 0.033333 
0.688432 0.183120 0.033333 
0.621627 0.196072 0.033333 
0.542195 0.202608 0.033333 
0.457805 0.202608 0.033333 
0.378373 0.196072 0.033333 
0.311568 0.183120 0.033333 
0.256103 0.164349 0.033333 
0.208448 0.140478 0.033333 
0.165681 0.112576 0.033333 
0.127307 0.083108 0.033333 
0.093438 0.054892 0.033333 
0.073196 0.037753 0.033333 
0.053725 0.020778 0.033333 
0.033741 0.002318 0.033333 
0.023156 -0.007983 0.033333 
0.011963 -0.019272 0.033333 
0.000000 -0.031755 0.033333 
1.000000 -0.021755 0.066667 
0.990850 0.017789 0.066667 
0.980958 0.051950 0.066667 
0.970376 0.081349 0.066667 
0.947360 0.128352 0.066667 
0.922228 0.163774 0.066667 
0.895405 0.192590 0.066667 
0.852785 0.231274 0.066667 
0.807865 0.264837 0.066667 
0.761190 0.291827 0.066667 
0.712765 0.311270 0.066667 
0.660448 0.324119 0.066667 
0.601555 0.331809 0.066667 
0.534880 0.335534 0.066667 
0.465120 0.335534 0.066667 
0.398445 0.331809 0.066667 
0.339552 0.324119 0.066667 
0.287235 0.311270 0.066667 
0.238810 0.291827 0.066667 
0.192135 0.264837 0.066667 
0.147215 0.231274 0.066667 
0.104595 0.192590 0.066667 
0.077772 0.163774 0.066667 
0.052640 0.128352 0.066667 
0.029624 0.081349 0.066667 
0.019042 0.051950 0.066667 
0.009150 0.017789 0.066667 
0.000000 -0.021755 0.066667 
1.000000 -0.025088 0.066667 
0.989912 0.005435 0.066667 
0.979586 0.031972 0.066667 
0.969004 0.055005 0.066667 
0.946999 0.092494 0.066667 
0.923753 0.121767 0.066667 
0.899124 0.146691 0.066667 
0.859421 0.181885 0.066667 
0.816683 0.214084 0.066667 
0.771310 0.241378 0.066667 
0.723143 0.262296 0.066667 
0.669776 0.277119 0.066667 
0.608246 0.286563 0.066667 
0.537318 0.291225 0.066667 
0.462682 0.291225 0.066667 
0.391754 0.286563 0.066667 
0.330224 0.277119 0.066667 
0.276857 0.262296 0.066667 
0.228690 0.241378 0.066667 
0.183317 0.214084 0.066667 
0.140579 0.181885 0.066667 
0.100876 0.146691 0.066667 
0.076247 0.121767 0.066667 
0.053001 0.092494 0.066667 
0.030996 0.055005 0.066667 
0.020414 0.031972 0.066667 
0.010088 0.005435 0.066667 
0.000000 -0.025088 0.066667 
1.000000 -0.028422 0.066667 
0.988975 -0.006918 0.066667 
0.978215 0.011995 0.066667 
0.967632 0.028662 0.066667 
0.946637 0.056636 0.066667 
0.925278 0.079760 0.066667 
0.902843 0.100791 0.066667 
0.866057 0.132496 0.066667 
0.825501 0.163330 0.066667 
0.781431 0.190928 0.066667 
0.733520 0.213323 0.066667 
0.679104 0.230119 0.066667 
0.614937 0.241318 0.066667 
0.539756 0.246917 0.066667 
0.460244 0.246917 0.066667 
0.385063 0.241318 0.066667 
0.320896 0.230119 0.066667 
0.266480 0.213323 0.066667 
0.218569 0.190928 0.066667 
0.174499 0.163330 0.066667 
0.133943 0.132496 0.066667 
0.097157 0.100791 0.066667 
0.074722 0.079760 0.066667 
0.053363 0.056636 0.066667 
0.032368 0.028662 0.066667 
0.021785 0.011995 0.066667 
0.011025 -0.006918 0.066667 
0.000000 -0.028422 0.066667 
1.000000 -0.031755 0.066667 
0.988037 -0.019272 0.066667 
0.976844 -0.007983 0.066667 
0.966259 0.002318 0.066667 
0.946275 0.020778 0.066667 
0.926804 0.037753 0.066667 
0.906562 0.054892 0.066667 
0.872693 0.083108 0.066667 
0.834319 0.112576 0.066667 
0.791552 0.140478 0.066667 
0.743897 0.164349 0.066667 
0.688432 0.183120 0.066667 
0.621627 0.196072 0.066667 
0.542195 0.202608 0.066667 
0.457805 0.202608 0.066667 
0.378373 0.196072 0.066667 
0.311568 0.183120 0.066667 
0.256103 0.164349 0.066667 
0.208448 0.140478 0.066667 
0.165681 0.112576 0.066667 
0.127307 0.083108 0.066667 
0.093438 0.054892 0.066667 
0.073196 0.037753 0.066667 
0.053725 0.020778 0.066667 
0.033741 0.002318 0.066667 
0.023156 -0.007983 0.066667 
0.011963 -0.019272 0.066667 
0.000000 -0.031755 0.066667 
1.000000 -0.021755 0.100000 
0.990850 0.017789 0.100000 
0.980958 0.051950 0.100000 
0.970376 0.081349 0.100000 
0.947360 0.128352 0.100000 
0.922228 0.163774 0.100000 
0.895405 0.192590 0.100000 
0.852785 0.231274 0.100000 
0.807865 0.264837 0.100000 
0.761190 0.291827 0.100000 
0.712765 0.311270 0.100000 
0.660448 0.324119 0.100000 
0.601555 0.331809 0.100000 
0.534880 0.335534 0.100000 
0.465120 0.335534 0.100000 
0.398445 0.331809 0.100000 
0.339552 0.324119 0.100000 
0.287235 0.311270 0.100000 
0.238810 0.291827 0.100000 
0.192135 0.264837 0.100000 
0.147215 0.231274 0.100000 
0.104595 0.192590 0.100000 
0.077772 0.163774 0.100000 
0.052640 0.128352 0.100000 
0.029624 0.081349 0.100000 
0.019042 0.051950 0.100000 
0.009150 0.017789 0.100000 
0.000000 -0.021755 0.100000 
1.000000 -0.025088 0.100000 
0.989912 0.005435 0.100000 
0.979586 0.031972 0.100000 
0.969004 0.055005 0.100000 
0.946999 0.092494 0.100000 
0.923753 0.121767 0.100000 
0.899124 0.146691 0.100000 
0.859421 0.181885 0.100000 
0.816683 0.214084 0.100000 
0.771310 0.241378 0.100000 
0.723143 0.262296 0.100000 
0.669776 0.277119 0.100000 
0.608246 0.286563 0.100000 
0.537318 0.291225 0.100000 
0.462682 0.291225 0.100000 
0.391754 0.286563 0.100000 
0.330224 0.277119 0.100000 
0.276857 0.262296 0.100000 
0.228690 0.241378 0.100000 
0.183317 0.214084 0.100000 
0.140579 0.181885 0.100000 
0.100876 0.146691 0.100000 
0.076247 0.121767 0.100000 
0.053001 0.092494 0.100000 
0.030996 0.055005 0.100000 
0.020414 0.031972 0.100000 
0.010088 0.005435 0.100000 
0.000000 -0.025088 0.100000 
1.000000 -0.028422 0.100000 
0.988975 -0.006918 0.100000 
0.978215 0.011995 0.100000 
0.967632 0.028662 0.100000 
0.946637 0.056636 0.100000 
0.925278 0.079760 0.100000 
0.902843 0.100791 0.100000 
0.866057 0.132496 0.100000 
0.825501 0.163330 0.100000 
0.781431 0.190928 0.100000 
0.733520 0.213323 0.100000 
0.679104 0.230119 0.100000 
0.614937 0.241318 0.100000 
0.539756 0.246917 0.100000 
0.460244 0.246917 0.100000 
0.385063 0.241318 0.100000 
0.320896 0.230119 0.100000 
0.266480 0.213323 0.100000 
0.218569 0.190928 0.100000 
0.174499 0.163330 0.100000 
0.133943 0.132496 0.100000 
0.097157 0.100791 0.100000 
0.074722 0.079760 0.100000 
0.053363 0.056636 0.100000 
0.032368 0.028662 0.100000 
0.021785 0.011995 0.100000 
0.011025 -0.006918 0.100000 
0.000000 -0.028422 0.100000 
1.000000 -0.031755 0.100000 
0.988037 -0.019272 0.100000 
0.976844 -0.007983 0.100000 
0.966259 0.002318 0.100000 
0.946275 0.020778 0.100000 
0.926804 0.037753 0.100000 
0.906562 0.054892 0.100000 
0.872693 0.083108 0.100000 
0.834319 0.112576 0.100000 
0.791552 0.140478 0.100000 
0.743897 0.164349 0.100000 
0.688432 0.183120 0.100000 
0.621627 0.196072 0.100000 
0.542195 0.202608 0.100000 
0.457805 0.202608 0.100000 
0.378373 0.196072 0.100000 
0.311568 0.183120 0.100000 
0.256103 0.164349 0.100000 
0.208448 0.140478 0.100000 
0.165681 0.112576 0.100000 
0.127307 0.083108 0.100000 
0.093438 0.054892 0.100000 
0.073196 0.037753 0.100000 
0.053725 0.020778 0.100000 
0.033741 0.002318 0.100000 
0.023156 -0.007983 0.100000 
0.011963 -0.019272 0.100000 
0.000000 -0.031755 0.100000 
Zone T="FFD_vol1" I=10 J=2 K=2
DATAPACKING=POINT
1.828890 -0.771760 0.000000 
1.788792 -0.643190 0.000000 
1.725535 -0.546301 0.000000 
1.653908 -0.452310 0.000000 
1.574179 -0.365752 0.000000 
1.486400 -0.300806 0.000000 
1.390667 -0.218538 0.000000 
1.283508 -0.164789 0.000000 
1.168802 -0.133879 0.000000 
1.011536 -0.162081 0.000000 
1.820218 -0.784000 0.000000 
1.778676 -0.656266 0.000000 
1.712970 -0.561015 0.000000 
1.638624 -0.469171 0.000000 
1.556248 -0.385095 0.000000 
1.466238 -0.322649 0.000000 
1.368840 -0.242725 0.000000 
1.260698 -0.191096 0.000000 
1.145621 -0.161609 0.000000 
1.005755 -0.170240 0.000000 
1.828890 -0.771760 0.100000 
1.788792 -0.643190 0.100000 
1.725535 -0.546301 0.100000 
1.653908 -0.452310 0.100000 
1.574179 -0.365752 0.100000 
1.486400 -0.300806 0.100000 
1.390667 -0.218538 0.100000 
1.283508 -0.164789 0.100000 
1.168802 -0.133879 0.100000 
1.011536 -0.162081 0.100000 
1.820218 -0.784000 0.100000 
1.778676 -0.656266 0.100000 
1.712970 -0.561015 0.100000 
1.638624 -0.469171 0.100000 
1.556248 -0.385095 0.100000 
1.466238 -0.322649 0.100000 
1.368840 -0.242725 0.100000 
1.260698 -0.191096 0.100000 
1.145621 -0.161609 0.100000 
1.005755 -0.170240 0.100000 
Zone T="embedding_vol" I=28 J=4 K=4
DATAPACKING=POINT
1.828890 -0.771760 0.000000 
1.815832 -0.731773 0.000000 
1.803362 -0.697132 0.000000 
1.791445 -0.667248 0.000000 
1.769115 -0.619396 0.000000 
1.748538 -0.583503 0.000000 
1.729411 -0.554858 0.000000 
1.702758 -0.517552 0.000000 
1.677527 -0.484324 0.000000 
1.652558 -0.453549 0.000000 
1.626882 -0.423958 0.000000 
1.600308 -0.395718 0.000000 
1.572837 -0.369354 0.000000 
1.544473 -0.345064 0.000000 
1.515217 -0.321733 0.000000 
1.485075 -0.297919 0.000000 
1.454026 -0.272704 0.000000 
1.421965 -0.247262 0.000000 
1.388763 -0.223291 0.000000 
1.353982 -0.202076 0.000000 
1.315952 -0.183246 0.000000 
1.272692 -0.166020 0.000000 
1.239087 -0.155544 0.000000 
1.196411 -0.148226 0.000000 
1.138798 -0.146860 0.000000 
1.102556 -0.149282 0.000000 
1.060380 -0.154239 0.000000 
1.011536 -0.162081 0.000000 
1.825999 -0.775840 0.000000 
1.812783 -0.735945 0.000000 
1.800161 -0.701397 0.000000 
1.788097 -0.671604 0.000000 
1.765486 -0.623933 0.000000 
1.744647 -0.588218 0.000000 
1.725276 -0.559746 0.000000 
1.698283 -0.522691 0.000000 
1.672738 -0.489711 0.000000 
1.647467 -0.459188 0.000000 
1.621495 -0.429860 0.000000 
1.594632 -0.401891 0.000000 
1.566884 -0.375803 0.000000 
1.538256 -0.351789 0.000000 
1.508755 -0.328733 0.000000 
1.478385 -0.305191 0.000000 
1.447131 -0.280242 0.000000 
1.414886 -0.255060 0.000000 
1.381525 -0.231341 0.000000 
1.346610 -0.210370 0.000000 
1.308467 -0.191779 0.000000 
1.265112 -0.174790 0.000000 
1.231518 -0.164397 0.000000 
1.189244 -0.156718 0.000000 
1.132808 -0.154100 0.000000 
1.097567 -0.155423 0.000000 
1.056728 -0.158892 0.000000 
1.009609 -0.164801 0.000000 
1.823109 -0.779920 0.000000 
1.809734 -0.740118 0.000000 
1.796960 -0.705661 0.000000 
1.784748 -0.675961 0.000000 
1.761857 -0.628470 0.000000 
1.740756 -0.592932 0.000000 
1.721141 -0.564633 0.000000 
1.693809 -0.527830 0.000000 
1.667948 -0.495098 0.000000 
1.642376 -0.464827 0.000000 
1.616108 -0.435761 0.000000 
1.588956 -0.408064 0.000000 
1.560930 -0.382251 0.000000 
1.532039 -0.358514 0.000000 
1.502292 -0.335734 0.000000 
1.471696 -0.312464 0.000000 
1.440236 -0.287781 0.000000 
1.407808 -0.262858 0.000000 
1.374287 -0.239391 0.000000 
1.339237 -0.218664 0.000000 
1.300981 -0.200313 0.000000 
1.257532 -0.183559 0.000000 
1.223949 -0.173250 0.000000 
1.182077 -0.165210 0.000000 
1.126819 -0.161340 0.000000 
1.092577 -0.161565 0.000000 
1.053077 -0.163545 0.000000 
1.007682 -0.167521 0.000000 
1.820218 -0.784000 0.000000 
1.806686 -0.744291 0.000000 
1.793759 -0.709926 0.000000 
1.781400 -0.680317 0.000000 
1.758229 -0.633007 0.000000 
1.736866 -0.597647 0.000000 
1.717005 -0.569521 0.000000 
1.689334 -0.532969 0.000000 
1.663159 -0.500485 0.000000 
1.637286 -0.470466 0.000000 
1.610722 -0.441663 0.000000 
1.583280 -0.414236 0.000000 
1.554976 -0.388700 0.000000 
1.525822 -0.365240 0.000000 
1.495830 -0.342735 0.000000 
1.465007 -0.319736 0.000000 
1.433341 -0.295319 0.000000 
1.400730 -0.270656 0.000000 
1.367049 -0.247441 0.000000 
1.331864 -0.226958 0.000000 
1.293495 -0.208846 0.000000 
1.249953 -0.192329 0.000000 
1.216380 -0.182104 0.000000 
1.174910 -0.173701 0.000000 
1.120830 -0.168580 0.000000 
1.087588 -0.167706 0.000000 
1.049426 -0.168199 0.000000 
1.005755 -0.170240 0.000000 
1.828890 -0.771760 0.033333 
1.815832 -0.731773 0.033333 
1.803362 -0.697132 0.033333 
1.791445 -0.667248 0.033333 
1.769115 -0.619396 0.033333 
1.748538 -0.583503 0.033333 
1.729411 -0.554858 0.033333 
1.702758 -0.517552 0.033333 
1.677527 -0.484324 0.033333 
1.652558 -0.453549 0.033333 
1.626882 -0.423958 0.033333 
1.600308 -0.395718 0.033333 
1.572837 -0.369354 0.033333 
1.544473 -0.345064 0.033333 
1.515217 -0.321733 0.033333 
1.485075 -0.297919 0.033333 
1.454026 -0.272704 0.033333 
1.421965 -0.247262 0.033333 
1.388763 -0.223291 0.033333 
1.353982 -0.202076 0.033333 
1.315952 -0.183246 0.033333 
1.272692 -0.166020 0.033333 
1.239087 -0.155544 0.033333 
1.196411 -0.148226 0.033333 
1.138798 -0.146860 0.033333 
1.102556 -0.149282 0.033333 
1.060380 -0.154239 0.033333 
1.011536 -0.162081 0.033333 
1.825999 -0.775840 0.033333 
1.812783 -0.735945 0.033333 
1.800161 -0.701397 0.033333 
1.788097 -0.671604 0.033333 
1.765486 -0.623933 0.033333 
1.744647 -0.588218 0.033333 
1.725276 -0.559746 0.033333 
1.698283 -0.522691 0.033333 
1.672738 -0.489711 0.033333 
1.647467 -0.459188 0.033333 
1.621495 -0.429860 0.033333 
1.594632 -0.401891 0.033333 
1.566884 -0.375803 0.033333 
1.538256 -0.351789 0.033333 
1.508755 -0.328733 0.033333 
1.478385 -0.305191 0.033333 
1.447131 -0.280242 0.033333 
1.414886 -0.255060 0.033333 
1.381525 -0.231341 0.033333 
1.346610 -0.210370 0.033333 
1.308467 -0.191779 0.033333 
1.265112 -0.174790 0.033333 
1.231518 -0.164397 0.033333 
1.189244 -0.156718 0.033333 
1.132808 -0.154100 0.033333 
1.097567 -0.155423 0.033333 
1.056728 -0.158892 0.033333 
1.009609 -0.164801 0.033333 
1.823109 -0.779920 0.033333 
1.809734 -0.740118 0.033333 
1.796960 -0.705661 0.033333 
1.784748 -0.675961 0.033333 
1.761857 -0.628470 0.033333 
1.740756 -0.592932 0.033333 
1.721141 -0.564633 0.033333 
1.693809 -0.527830 0.033333 
1.667948 -0.495098 0.033333 
1.642376 -0.464827 0.033333 
1.616108 -0.435761 0.033333 
1.588956 -0.408064 0.033333 
1.560930 -0.382251 0.033333 
1.532039 -0.358514 0.033333 
1.502292 -0.335734 0.033333 
1.471696 -0.312464 0.033333 
1.440236 -0.287781 0.033333 
1.407808 -0.262858 0.033333 
1.374287 -0.239391 0.033333 
1.339237 -0.218664 0.033333 
1.300981 -0.200313 0.033333 
1.257532 -0.183559 0.033333 
1.223949 -0.173250 0.033333 
1.182077 -0.165210 0.033333 
1.126819 -0.161340 0.033333 
1.092577 -0.161565 0.033333 
1.053077 -0.163545 0.033333 
1.007682 -0.167521 0.033333 
1.820218 -0.784000 0.033333 
1.806686 -0.744291 0.033333 
1.793759 -0.709926 0.033333 
1.781400 -0.680317 0.033333 
1.758229 -0.633007 0.033333 
1.736866 -0.597647 0.033333 
1.717005 -0.569521 0.033333 
1.689334 -0.532969 0.033333 
1.663159 -0.500485 0.033333 
1.637286 -0.470466 0.033333 
1.610722 -0.441663 0.033333 
1.583280 -0.414236 0.033333 
1.554976 -0.388700 0.033333 
1.525822 -0.365240 0.033333 
1.495830 -0.342735 0.033333 
1.465007 -0.319736 0.033333 
1.433341 -0.295319 0.033333 
1.400730 -0.270656 0.033333 
1.367049 -0.247441 0.033333 
1.331864 -0.226958 0.033333 
1.293495 -0.208846 0.033333 
1.249953 -0.192329 0.033333 
1.216380 -0.182104 0.033333 
1.174910 -0.173701 0.033333 
1.120830 -0.168580 0.033333 
1.087588 -0.167706 0.033333 
1.049426 -0.168199 0.033333 
1.005755 -0.170240 0.033333 
1.828890 -0.771760 0.066667 
1.815832 -0.731773 0.066667 
1.803362 -0.697132 0.066667 
1.791445 -0.667248 0.066667 
1.769115 -0.619396 0.066667 
1.748538 -0.583503 0.066667 
1.729411 -0.554858 0.066667 
1.702758 -0.517552 0.066667 
1.677527 -0.484324 0.066667 
1.652558 -0.453549 0.066667 
1.626882 -0.423958 0.066667 
1.600308 -0.395718 0.066667 
1.572837 -0.369354 0.066667 
1.544473 -0.345064 0.066667 
1.515217 -0.321733 0.066667 
1.485075 -0.297919 0.066667 
1.454026 -0.272704 0.066667 
1.421965 -0.247262 0.066667 
1.388763 -0.223291 0.066667 
1.353982 -0.202076 0.066667 
1.315952 -0.183246 0.066667 
1.272692 -0.166020 0.066667 
1.239087 -0.155544 0.066667 
1.196411 -0.148226 0.066667 
1.138798 -0.146860 0.066667 
1.102556 -0.149282 0.066667 
1.060380 -0.154239 0.066667 
1.011536 -0.162081 0.066667 
1.825999 -0.775840 0.066667 
1.812783 -0.735945 0.066667 
1.800161 -0.701397 0.066667 
1.788097 -0.671604 0.066667 
1.765486 -0.623933 0.066667 
1.744647 -0.588218 0.066667 
1.725276 -0.559746 0.066667 
1.698283 -0.522691 0.066667 
1.672738 -0.489711 0.066667 
1.647467 -0.459188 0.066667 
1.621495 -0.429860 0.066667 
1.594632 -0.401891 0.066667 
1.566884 -0.375803 0.066667 
1.538256 -0.351789 0.066667 
1.508755 -0.328733 0.066667 
1.478385 -0.305191 0.066667 
1.447131 -0.280242 0.066667 
1.414886 -0.255060 0.066667 
1.381525 -0.231341 0.066667 
1.346610 -0.210370 0.066667 
1.308467 -0.191779 0.066667 
1.265112 -0.174790 0.066667 
1.231518 -0.164397 0.066667 
1.189244 -0.156718 0.066667 
1.132808 -0.154100 0.066667 
1.097567 -0.155423 0.066667 
1.056728 -0.158892 0.066667 
1.009609 -0.164801 0.066667 
1.823109 -0.779920 0.066667 
1.809734 -0.740118 0.066667 
1.796960 -0.705661 0.066667 
1.784748 -0.675961 0.066667 
1.761857 -0.628470 0.066667 
1.740756 -0.592932 0.066667 
1.721141 -0.564633 0.066667 
1.693809 -0.527830 0.066667 
1.667948 -0.495098 0.066667 
1.642376 -0.464827 0.066667 
1.616108 -0.435761 0.066667 
1.588956 -0.408064 0.066667 
1.560930 -0.382251 0.066667 
1.532039 -0.358514 0.066667 
1.502292 -0.335734 0.066667 
1.471696 -0.312464 0.066667 
1.440236 -0.287781 0.066667 
1.407808 -0.262858 0.066667 
1.374287 -0.239391 0.066667 
1.339237 -0.218664 0.066667 
1.300981 -0.200313 0.066667 
1.257532 -0.183559 0.066667 
1.223949 -0.173250 0.066667 
1.182077 -0.165210 0.066667 
1.126819 -0.161340 0.066667 
1.092577 -0.161565 0.066667 
1.053077 -0.163545 0.066667 
1.007682 -0.167521 0.066667 
1.820218 -0.784000 0.066667 
1.806686 -0.744291 0.066667 
1.793759 -0.709926 0.066667 
1.781400 -0.680317 0.066667 
1.758229 -0.633007 0.066667 
1.736866 -0.597647 0.066667 
1.717005 -0.569521 0.066667 
1.689334 -0.532969 0.066667 
1.663159 -0.500485 0.066667 
1.637286 -0.470466 0.066667 
1.610722 -0.441663 0.066667 
1.583280 -0.414236 0.066667 
1.554976 -0.388700 0.066667 
1.525822 -0.365240 0.066667 
1.495830 -0.342735 0.066667 
1.465007 -0.319736 0.066667 
1.433341 -0.295319 0.066667 
1.400730 -0.270656 0.066667 
1.367049 -0.247441 0.066667 
1.331864 -0.226958 0.066667 
1.293495 -0.208846 0.066667 
1.249953 -0.192329 0.066667 
1.216380 -0.182104 0.066667 
1.174910 -0.173701 0.066667 
1.120830 -0.168580 0.066667 
1.087588 -0.167706 0.066667 
1.049426 -0.168199 0.066667 
1.005755 -0.170240 0.066667 
1.828890 -0.771760 0.100000 
1.815832 -0.731773 0.100000 
1.803362 -0.697132 0.100000 
1.791445 -0.667248 0.100000 
1.769115 -0.619396 0.100000 
1.748538 -0.583503 0.100000 
1.729411 -0.554858 0.100000 
1.702758 -0.517552 0.100000 
1.677527 -0.484324 0.100000 
1.652558 -0.453549 0.100000 
1.626882 -0.423958 0.100000 
1.600308 -0.395718 0.100000 
1.572837 -0.369354 0.100000 
1.544473 -0.345064 0.100000 
1.515217 -0.321733 0.100000 
1.485075 -0.297919 0.100000 
1.454026 -0.272704 0.100000 
1.421965 -0.247262 0.100000 
1.388763 -0.223291 0.100000 
1.353982 -0.202076 0.100000 
1.315952 -0.183246 0.100000 
1.272692 -0.166020 0.100000 
1.239087 -0.155544 0.100000 
1.196411 -0.148226 0.100000 
1.138798 -0.146860 0.100000 
1.102556 -0.149282 0.100000 
1.060380 -0.154239 0.100000 
1.011536 -0.162081 0.100000 
1.825999 -0.775840 0.100000 
1.812783 -0.735945 0.100000 
1.800161 -0.701397 0.100000 
1.788097 -0.671604 0.100000 
1.765486 -0.623933 0.100000 
1.744647 -0.588218 0.100000 
1.725276 -0.559746 0.100000 
1.698283 -0.522691 0.100000 
1.672738 -0.489711 0.100000 
1.647467 -0.459188 0.100000 
1.621495 -0.429860 0.100000 
1.594632 -0.401891 0.100000 
1.566884 -0.375803 0.100000 
1.538256 -0.351789 0.100000 
1.508755 -0.328733 0.100000 
1.478385 -0.305191 0.100000 
1.447131 -0.280242 0.100000 
1.414886 -0.255060 0.100000 
1.381525 -0.231341 0.100000 
1.346610 -0.210370 0.100000 
1.308467 -0.191779 0.100000 
1.265112 -0.174790 0.100000 
1.231518 -0.164397 0.100000 
1.189244 -0.156718 0.100000 
1.132808 -0.154100 0.100000 
1.097567 -0.155423 0.100000 
1.056728 -0.158892 0.100000 
1.009609 -0.164801 0.100000 
1.823109 -0.779920 0.100000 
1.809734 -0.740118 0.100000 
1.796960 -0.705661 0.100000 
1.784748 -0.675961 0.100000 
1.761857 -0.628470 0.100000 
1.740756 -0.592932 0.100000 
1.721141 -0.564633 0.100000 
1.693809 -0.527830 0.100000 
1.667948 -0.495098 0.100000 
1.642376 -0.464827 0.100000 
1.616108 -0.435761 0.100000 
1.588956 -0.408064 0.100000 
1.560930 -0.382251 0.100000 
1.532039 -0.358514 0.100000 
1.502292 -0.335734 0.100000 
1.471696 -0.312464 0.100000 
1.440236 -0.287781 0.100000 
1.407808 -0.262858 0.100000 
1.374287 -0.239391 0.100000 
1.339237 -0.218664 0.100000 
1.300981 -0.200313 0.100000 
1.257532 -0.183559 0.100000 
1.223949 -0.173250 0.100000 
1.182077 -0.165210 0.100000 
1.126819 -0.161340 0.100000 
1.092577 -0.161565 0.100000 
1.053077 -0.163545 0.100000 
1.007682 -0.167521 0.100000 
1.820218 -0.784000 0.100000 
1.806686 -0.744291 0.100000 
1.793759 -0.709926 0.100000 
1.781400 -0.680317 0.100000 
1.758229 -0.633007 0.100000 
1.736866 -0.597647 0.100000 
1.717005 -0.569521 0.100000 
1.689334 -0.532969 0.100000 
1.663159 -0.500485 0.100000 
1.637286 -0.470466 0.100000 
1.610722 -0.441663 0.100000 
1.583280 -0.414236 0.100000 
1.554976 -0.388700 0.100000 
1.525822 -0.365240 0.100000 
1.495830 -0.342735 0.100000 
1.465007 -0.319736 0.100000 
1.433341 -0.295319 0.100000 
1.400730 -0.270656 0.100000 
1.367049 -0.247441 0.100000 
1.331864 -0.226958 0.100000 
1.293495 -0.208846 0.100000 
1.249953 -0.192329 0.100000 
1.216380 -0.182104 0.100000 
1.174910 -0.173701 0.100000 
1.120830 -0.168580 0.100000 
1.087588 -0.167706 0.100000 
1.049426 -0.168199 0.100000 
1.005755 -0.170240 0.100000 
