VARIABLES = "CoordinateX", "CoordinateY", "CoordinateZ"
Zone T="FFD_vol0" I=10 J=2 K=2
DATAPACKING=POINT
1.000000 -0.043287 0.000000 
0.973716 0.115115 0.000000 
0.899672 0.209642 0.000000 
0.763006 0.310242 0.000000 
0.615441 0.340129 0.000000 
0.384559 0.340129 0.000000 
0.236994 0.310242 0.000000 
0.100328 0.209642 0.000000 
0.026284 0.115115 0.000000 
0.000000 -0.043287 0.000000 
1.000000 -0.053287 0.000000 
0.962798 0.017232 0.000000 
0.913486 0.060342 0.000000 
0.797974 0.153424 0.000000 
0.643930 0.208609 0.000000 
0.356070 0.208609 0.000000 
0.202026 0.153424 0.000000 
0.086514 0.060342 0.000000 
0.037202 0.017232 0.000000 
0.000000 -0.053287 0.000000 
1.000000 -0.043287 0.100000 
0.973716 0.115115 0.100000 
0.899672 0.209642 0.100000 
0.763006 0.310242 0.100000 
0.615441 0.340129 0.100000 
0.384559 0.340129 0.100000 
0.236994 0.310242 0.100000 
0.100328 0.209642 0.100000 
0.026284 0.115115 0.100000 
0.000000 -0.043287 0.100000 
1.000000 -0.053287 0.100000 
0.962798 0.017232 0.100000 
0.913486 0.060342 0.100000 
0.797974 0.153424 0.100000 
0.643930 0.208609 0.100000 
0.356070 0.208609 0.100000 
0.202026 0.153424 0.100000 
0.086514 0.060342 0.100000 
0.037202 0.017232 0.100000 
0.000000 -0.053287 0.100000 
Zone T="embedding_vol" I=28 J=4 K=4
DATAPACKING=POINT
1.000000 -0.043287 0.000000 
0.990850 0.005541 0.000000 
0.980958 0.046994 0.000000 
0.970376 0.081931 0.000000 
0.947360 0.135690 0.000000 
0.922228 0.173683 0.000000 
0.895405 0.202777 0.000000 
0.852785 0.240705 0.000000 
0.807865 0.272962 0.000000 
0.761190 0.298456 0.000000 
0.712765 0.316528 0.000000 
0.660448 0.328254 0.000000 
0.601555 0.335148 0.000000 
0.534880 0.338469 0.000000 
0.465120 0.338469 0.000000 
0.398445 0.335148 0.000000 
0.339552 0.328254 0.000000 
0.287235 0.316528 0.000000 
0.238810 0.298456 0.000000 
0.192135 0.272962 0.000000 
0.147215 0.240705 0.000000 
0.104595 0.202777 0.000000 
0.077772 0.173683 0.000000 
0.052640 0.135690 0.000000 
0.029624 0.081931 0.000000 
0.019042 0.046994 0.000000 
0.009150 0.005541 0.000000 
0.000000 -0.043287 0.000000 
1.000000 -0.046620 0.000000 
0.989912 -0.006813 0.000000 
0.979586 0.027016 0.000000 
0.969004 0.055587 0.000000 
0.946999 0.099832 0.000000 
0.923753 0.131676 0.000000 
0.899124 0.156877 0.000000 
0.859421 0.191316 0.000000 
0.816683 0.222208 0.000000 
0.771310 0.248007 0.000000 
0.723143 0.267554 0.000000 
0.669776 0.281255 0.000000 
0.608246 0.289903 0.000000 
0.537318 0.294160 0.000000 
0.462682 0.294160 0.000000 
0.391754 0.289903 0.000000 
0.330224 0.281255 0.000000 
0.276857 0.267554 0.000000 
0.228690 0.248007 0.000000 
0.183317 0.222208 0.000000 
0.140579 0.191316 0.000000 
0.100876 0.156877 0.000000 
0.076247 0.131676 0.000000 
0.053001 0.099832 0.000000 
0.030996 0.055587 0.000000 
0.020414 0.027016 0.000000 
0.010088 -0.006813 0.000000 
0.000000 -0.046620 0.000000 
1.000000 -0.049953 0.000000 
0.988975 -0.019167 0.000000 
0.978215 0.007039 0.000000 
0.967632 0.029243 0.000000 
0.946637 0.063974 0.000000 
0.925278 0.089670 0.000000 
0.902843 0.110978 0.000000 
0.866057 0.141927 0.000000 
0.825501 0.171454 0.000000 
0.781431 0.197557 0.000000 
0.733520 0.218580 0.000000 
0.679104 0.234255 0.000000 
0.614937 0.244657 0.000000 
0.539756 0.249852 0.000000 
0.460244 0.249852 0.000000 
0.385063 0.244657 0.000000 
0.320896 0.234255 0.000000 
0.266480 0.218580 0.000000 
0.218569 0.197557 0.000000 
0.174499 0.171454 0.000000 
0.133943 0.141927 0.000000 
0.097157 0.110978 0.000000 
0.074722 0.089670 0.000000 
0.053363 0.063974 0.000000 
0.032368 0.029243 0.000000 
0.021785 0.007039 0.000000 
0.011025 -0.019167 0.000000 
0.000000 -0.049953 0.000000 
1.000000 -0.053287 0.000000 
0.988037 -0.031520 0.000000 
0.976844 -0.012939 0.000000 
0.966259 0.002899 0.000000 
0.946275 0.028115 0.000000 
0.926804 0.047663 0.000000 
0.906562 0.065078 0.000000 
0.872693 0.092539 0.000000 
0.834319 0.120701 0.000000 
0.791552 0.147108 0.000000 
0.743897 0.169607 0.000000 
0.688432 0.187255 0.000000 
0.621627 0.199412 0.000000 
0.542195 0.205543 0.000000 
0.457805 0.205543 0.000000 
0.378373 0.199412 0.000000 
0.311568 0.187255 0.000000 
0.256103 0.169607 0.000000 
0.208448 0.147108 0.000000 
0.165681 0.120701 0.000000 
0.127307 0.092539 0.000000 
0.093438 0.065078 0.000000 
0.073196 0.047663 0.000000 
0.053725 0.028115 0.000000 
0.033741 0.002899 0.000000 
0.023156 -0.012939 0.000000 
0.011963 -0.031520 0.000000 
0.000000 -0.053287 0.000000 
1.000000 -0.043287 0.033333 
0.990850 0.005541 0.033333 
0.980958 0.046994 0.033333 
0.970376 0.081931 0.033333 
0.947360 0.135690 0.033333 
0.922228 0.173683 0.033333 
0.895405 0.202777 0.033333 
0.852785 0.240705 0.033333 
0.807865 0.272962 0.033333 
0.761190 0.298456 0.033333 
0.712765 0.316528 0.033333 
0.660448 0.328254 0.033333 
0.601555 0.335148 0.033333 
0.534880 0.338469 0.033333 
0.465120 0.338469 0.033333 
0.398445 0.335148 0.033333 
0.339552 0.328254 0.033333 
0.287235 0.316528 0.033333 
0.238810 0.298456 0.033333 
0.192135 0.272962 0.033333 
0.147215 0.240705 0.033333 
0.104595 0.202777 0.033333 
0.077772 0.173683 0.033333 
0.052640 0.135690 0.033333 
0.029624 0.081931 0.033333 
0.019042 0.046994 0.033333 
0.009150 0.005541 0.033333 
0.000000 -0.043287 0.033333 
1.000000 -0.046620 0.033333 
0.989912 -0.006813 0.033333 
0.979586 0.027016 0.033333 
0.969004 0.055587 0.033333 
0.946999 0.099832 0.033333 
0.923753 0.131676 0.033333 
0.899124 0.156877 0.033333 
0.859421 0.191316 0.033333 
0.816683 0.222208 0.033333 
0.771310 0.248007 0.033333 
0.723143 0.267554 0.033333 
0.669776 0.281255 0.033333 
0.608246 0.289903 0.033333 
0.537318 0.294160 0.033333 
0.462682 0.294160 0.033333 
0.391754 0.289903 0.033333 
0.330224 0.281255 0.033333 
0.276857 0.267554 0.033333 
0.228690 0.248007 0.033333 
0.183317 0.222208 0.033333 
0.140579 0.191316 0.033333 
0.100876 0.156877 0.033333 
0.076247 0.131676 0.033333 
0.053001 0.099832 0.033333 
0.030996 0.055587 0.033333 
0.020414 0.027016 0.033333 
0.010088 -0.006813 0.033333 
0.000000 -0.046620 0.033333 
1.000000 -0.049953 0.033333 
0.988975 -0.019167 0.033333 
0.978215 0.007039 0.033333 
0.967632 0.029243 0.033333 
0.946637 0.063974 0.033333 
0.925278 0.089670 0.033333 
0.902843 0.110978 0.033333 
0.866057 0.141927 0.033333 
0.825501 0.171454 0.033333 
0.781431 0.197557 0.033333 
0.733520 0.218580 0.033333 
0.679104 0.234255 0.033333 
0.614937 0.244657 0.033333 
0.539756 0.249852 0.033333 
0.460244 0.249852 0.033333 
0.385063 0.244657 0.033333 
0.320896 0.234255 0.033333 
0.266480 0.218580 0.033333 
0.218569 0.197557 0.033333 
0.174499 0.171454 0.033333 
0.133943 0.141927 0.033333 
0.097157 0.110978 0.033333 
0.074722 0.089670 0.033333 
0.053363 0.063974 0.033333 
0.032368 0.029243 0.033333 
0.021785 0.007039 0.033333 
0.011025 -0.019167 0.033333 
0.000000 -0.049953 0.033333 
1.000000 -0.053287 0.033333 
0.988037 -0.031520 0.033333 
0.976844 -0.012939 0.033333 
0.966259 0.002899 0.033333 
0.946275 0.028115 0.033333 
0.926804 0.047663 0.033333 
0.906562 0.065078 0.033333 
0.872693 0.092539 0.033333 
0.834319 0.120701 0.033333 
0.791552 0.147108 0.033333 
0.743897 0.169607 0.033333 
0.688432 0.187255 0.033333 
0.621627 0.199412 0.033333 
0.542195 0.205543 0.033333 
0.457805 0.205543 0.033333 
0.378373 0.199412 0.033333 
0.311568 0.187255 0.033333 
0.256103 0.169607 0.033333 
0.208448 0.147108 0.033333 
0.165681 0.120701 0.033333 
0.127307 0.092539 0.033333 
0.093438 0.065078 0.033333 
0.073196 0.047663 0.033333 
0.053725 0.028115 0.033333 
0.033741 0.002899 0.033333 
0.023156 -0.012939 0.033333 
0.011963 -0.031520 0.033333 
0.000000 -0.053287 0.033333 
1.000000 -0.043287 0.066667 
0.990850 0.005541 0.066667 
0.980958 0.046994 0.066667 
0.970376 0.081931 0.066667 
0.947360 0.135690 0.066667 
0.922228 0.173683 0.066667 
0.895405 0.202777 0.066667 
0.852785 0.240705 0.066667 
0.807865 0.272962 0.066667 
0.761190 0.298456 0.066667 
0.712765 0.316528 0.066667 
0.660448 0.328254 0.066667 
0.601555 0.335148 0.066667 
0.534880 0.338469 0.066667 
0.465120 0.338469 0.066667 
0.398445 0.335148 0.066667 
0.339552 0.328254 0.066667 
0.287235 0.316528 0.066667 
0.238810 0.298456 0.066667 
0.192135 0.272962 0.066667 
0.147215 0.240705 0.066667 
0.104595 0.202777 0.066667 
0.077772 0.173683 0.066667 
0.052640 0.135690 0.066667 
0.029624 0.081931 0.066667 
0.019042 0.046994 0.066667 
0.009150 0.005541 0.066667 
0.000000 -0.043287 0.066667 
1.000000 -0.046620 0.066667 
0.989912 -0.006813 0.066667 
0.979586 0.027016 0.066667 
0.969004 0.055587 0.066667 
0.946999 0.099832 0.066667 
0.923753 0.131676 0.066667 
0.899124 0.156877 0.066667 
0.859421 0.191316 0.066667 
0.816683 0.222208 0.066667 
0.771310 0.248007 0.066667 
0.723143 0.267554 0.066667 
0.669776 0.281255 0.066667 
0.608246 0.289903 0.066667 
0.537318 0.294160 0.066667 
0.462682 0.294160 0.066667 
0.391754 0.289903 0.066667 
0.330224 0.281255 0.066667 
0.276857 0.267554 0.066667 
0.228690 0.248007 0.066667 
0.183317 0.222208 0.066667 
0.140579 0.191316 0.066667 
0.100876 0.156877 0.066667 
0.076247 0.131676 0.066667 
0.053001 0.099832 0.066667 
0.030996 0.055587 0.066667 
0.020414 0.027016 0.066667 
0.010088 -0.006813 0.066667 
0.000000 -0.046620 0.066667 
1.000000 -0.049953 0.066667 
0.988975 -0.019167 0.066667 
0.978215 0.007039 0.066667 
0.967632 0.029243 0.066667 
0.946637 0.063974 0.066667 
0.925278 0.089670 0.066667 
0.902843 0.110978 0.066667 
0.866057 0.141927 0.066667 
0.825501 0.171454 0.066667 
0.781431 0.197557 0.066667 
0.733520 0.218580 0.066667 
0.679104 0.234255 0.066667 
0.614937 0.244657 0.066667 
0.539756 0.249852 0.066667 
0.460244 0.249852 0.066667 
0.385063 0.244657 0.066667 
0.320896 0.234255 0.066667 
0.266480 0.218580 0.066667 
0.218569 0.197557 0.066667 
0.174499 0.171454 0.066667 
0.133943 0.141927 0.066667 
0.097157 0.110978 0.066667 
0.074722 0.089670 0.066667 
0.053363 0.063974 0.066667 
0.032368 0.029243 0.066667 
0.021785 0.007039 0.066667 
0.011025 -0.019167 0.066667 
0.000000 -0.049953 0.066667 
1.000000 -0.053287 0.066667 
0.988037 -0.031520 0.066667 
0.976844 -0.012939 0.066667 
0.966259 0.002899 0.066667 
0.946275 0.028115 0.066667 
0.926804 0.047663 0.066667 
0.906562 0.065078 0.066667 
0.872693 0.092539 0.066667 
0.834319 0.120701 0.066667 
0.791552 0.147108 0.066667 
0.743897 0.169607 0.066667 
0.688432 0.187255 0.066667 
0.621627 0.199412 0.066667 
0.542195 0.205543 0.066667 
0.457805 0.205543 0.066667 
0.378373 0.199412 0.066667 
0.311568 0.187255 0.066667 
0.256103 0.169607 0.066667 
0.208448 0.147108 0.066667 
0.165681 0.120701 0.066667 
0.127307 0.092539 0.066667 
0.093438 0.065078 0.066667 
0.073196 0.047663 0.066667 
0.053725 0.028115 0.066667 
0.033741 0.002899 0.066667 
0.023156 -0.012939 0.066667 
0.011963 -0.031520 0.066667 
0.000000 -0.053287 0.066667 
1.000000 -0.043287 0.100000 
0.990850 0.005541 0.100000 
0.980958 0.046994 0.100000 
0.970376 0.081931 0.100000 
0.947360 0.135690 0.100000 
0.922228 0.173683 0.100000 
0.895405 0.202777 0.100000 
0.852785 0.240705 0.100000 
0.807865 0.272962 0.100000 
0.761190 0.298456 0.100000 
0.712765 0.316528 0.100000 
0.660448 0.328254 0.100000 
0.601555 0.335148 0.100000 
0.534880 0.338469 0.100000 
0.465120 0.338469 0.100000 
0.398445 0.335148 0.100000 
0.339552 0.328254 0.100000 
0.287235 0.316528 0.100000 
0.238810 0.298456 0.100000 
0.192135 0.272962 0.100000 
0.147215 0.240705 0.100000 
0.104595 0.202777 0.100000 
0.077772 0.173683 0.100000 
0.052640 0.135690 0.100000 
0.029624 0.081931 0.100000 
0.019042 0.046994 0.100000 
0.009150 0.005541 0.100000 
0.000000 -0.043287 0.100000 
1.000000 -0.046620 0.100000 
0.989912 -0.006813 0.100000 
0.979586 0.027016 0.100000 
0.969004 0.055587 0.100000 
0.946999 0.099832 0.100000 
0.923753 0.131676 0.100000 
0.899124 0.156877 0.100000 
0.859421 0.191316 0.100000 
0.816683 0.222208 0.100000 
0.771310 0.248007 0.100000 
0.723143 0.267554 0.100000 
0.669776 0.281255 0.100000 
0.608246 0.289903 0.100000 
0.537318 0.294160 0.100000 
0.462682 0.294160 0.100000 
0.391754 0.289903 0.100000 
0.330224 0.281255 0.100000 
0.276857 0.267554 0.100000 
0.228690 0.248007 0.100000 
0.183317 0.222208 0.100000 
0.140579 0.191316 0.100000 
0.100876 0.156877 0.100000 
0.076247 0.131676 0.100000 
0.053001 0.099832 0.100000 
0.030996 0.055587 0.100000 
0.020414 0.027016 0.100000 
0.010088 -0.006813 0.100000 
0.000000 -0.046620 0.100000 
1.000000 -0.049953 0.100000 
0.988975 -0.019167 0.100000 
0.978215 0.007039 0.100000 
0.967632 0.029243 0.100000 
0.946637 0.063974 0.100000 
0.925278 0.089670 0.100000 
0.902843 0.110978 0.100000 
0.866057 0.141927 0.100000 
0.825501 0.171454 0.100000 
0.781431 0.197557 0.100000 
0.733520 0.218580 0.100000 
0.679104 0.234255 0.100000 
0.614937 0.244657 0.100000 
0.539756 0.249852 0.100000 
0.460244 0.249852 0.100000 
0.385063 0.244657 0.100000 
0.320896 0.234255 0.100000 
0.266480 0.218580 0.100000 
0.218569 0.197557 0.100000 
0.174499 0.171454 0.100000 
0.133943 0.141927 0.100000 
0.097157 0.110978 0.100000 
0.074722 0.089670 0.100000 
0.053363 0.063974 0.100000 
0.032368 0.029243 0.100000 
0.021785 0.007039 0.100000 
0.011025 -0.019167 0.100000 
0.000000 -0.049953 0.100000 
1.000000 -0.053287 0.100000 
0.988037 -0.031520 0.100000 
0.976844 -0.012939 0.100000 
0.966259 0.002899 0.100000 
0.946275 0.028115 0.100000 
0.926804 0.047663 0.100000 
0.906562 0.065078 0.100000 
0.872693 0.092539 0.100000 
0.834319 0.120701 0.100000 
0.791552 0.147108 0.100000 
0.743897 0.169607 0.100000 
0.688432 0.187255 0.100000 
0.621627 0.199412 0.100000 
0.542195 0.205543 0.100000 
0.457805 0.205543 0.100000 
0.378373 0.199412 0.100000 
0.311568 0.187255 0.100000 
0.256103 0.169607 0.100000 
0.208448 0.147108 0.100000 
0.165681 0.120701 0.100000 
0.127307 0.092539 0.100000 
0.093438 0.065078 0.100000 
0.073196 0.047663 0.100000 
0.053725 0.028115 0.100000 
0.033741 0.002899 0.100000 
0.023156 -0.012939 0.100000 
0.011963 -0.031520 0.100000 
0.000000 -0.053287 0.100000 
Zone T="FFD_vol1" I=10 J=2 K=2
DATAPACKING=POINT
1.794684 -0.844110 0.000000 
1.755893 -0.679184 0.000000 
1.693446 -0.584926 0.000000 
1.622559 -0.496331 0.000000 
1.543626 -0.399942 0.000000 
1.456389 -0.340227 0.000000 
1.361309 -0.257409 0.000000 
1.254636 -0.201871 0.000000 
1.140306 -0.155851 0.000000 
0.982662 -0.202353 0.000000 
1.785909 -0.856276 0.000000 
1.745666 -0.692173 0.000000 
1.680757 -0.599534 0.000000 
1.607133 -0.513062 0.000000 
1.525533 -0.419132 0.000000 
1.436042 -0.361899 0.000000 
1.339279 -0.281410 0.000000 
1.231605 -0.227984 0.000000 
1.116891 -0.183384 0.000000 
0.976812 -0.210463 0.000000 
1.794684 -0.844110 0.100000 
1.755893 -0.679184 0.100000 
1.693446 -0.584926 0.100000 
1.622559 -0.496331 0.100000 
1.543626 -0.399942 0.100000 
1.456389 -0.340227 0.100000 
1.361309 -0.257409 0.100000 
1.254636 -0.201871 0.100000 
1.140306 -0.155851 0.100000 
0.982662 -0.202353 0.100000 
1.785909 -0.856276 0.100000 
1.745666 -0.692173 0.100000 
1.680757 -0.599534 0.100000 
1.607133 -0.513062 0.100000 
1.525533 -0.419132 0.100000 
1.436042 -0.361899 0.100000 
1.339279 -0.281410 0.100000 
1.231605 -0.227984 0.100000 
1.116891 -0.183384 0.100000 
0.976812 -0.210463 0.100000 
Zone T="embedding_vol" I=28 J=4 K=4
DATAPACKING=POINT
1.794684 -0.844110 0.000000 
1.782029 -0.793348 0.000000 
1.769903 -0.750414 0.000000 
1.758276 -0.714413 0.000000 
1.736393 -0.659615 0.000000 
1.716131 -0.621778 0.000000 
1.697243 -0.593725 0.000000 
1.670892 -0.557953 0.000000 
1.645931 -0.525804 0.000000 
1.621218 -0.495032 0.000000 
1.595799 -0.464043 0.000000 
1.569477 -0.433835 0.000000 
1.542242 -0.406054 0.000000 
1.514088 -0.381706 0.000000 
1.485029 -0.359218 0.000000 
1.455082 -0.336376 0.000000 
1.424237 -0.311648 0.000000 
1.392382 -0.286219 0.000000 
1.359377 -0.261955 0.000000 
1.324779 -0.240160 0.000000 
1.286921 -0.219886 0.000000 
1.243833 -0.199622 0.000000 
1.210340 -0.186236 0.000000 
1.167743 -0.176908 0.000000 
1.110135 -0.176364 0.000000 
1.073857 -0.180862 0.000000 
1.031612 -0.189328 0.000000 
0.982662 -0.202353 0.000000 
1.791759 -0.848165 0.000000 
1.778945 -0.797494 0.000000 
1.766666 -0.754652 0.000000 
1.754891 -0.718740 0.000000 
1.732726 -0.664121 0.000000 
1.712201 -0.626459 0.000000 
1.693067 -0.598577 0.000000 
1.666374 -0.563054 0.000000 
1.641096 -0.531150 0.000000 
1.616080 -0.500628 0.000000 
1.590363 -0.469899 0.000000 
1.563749 -0.439959 0.000000 
1.536234 -0.412452 0.000000 
1.507815 -0.388378 0.000000 
1.478508 -0.366163 0.000000 
1.448331 -0.343592 0.000000 
1.417278 -0.319128 0.000000 
1.385238 -0.293957 0.000000 
1.352072 -0.269944 0.000000 
1.317336 -0.248392 0.000000 
1.279364 -0.228355 0.000000 
1.236179 -0.208328 0.000000 
1.202697 -0.195025 0.000000 
1.160504 -0.185339 0.000000 
1.104084 -0.183553 0.000000 
1.068815 -0.186961 0.000000 
1.027921 -0.193951 0.000000 
0.980712 -0.205056 0.000000 
1.788834 -0.852220 0.000000 
1.775862 -0.801641 0.000000 
1.763429 -0.758889 0.000000 
1.751506 -0.723068 0.000000 
1.729059 -0.668628 0.000000 
1.708271 -0.631141 0.000000 
1.688890 -0.603430 0.000000 
1.661856 -0.568155 0.000000 
1.636261 -0.536496 0.000000 
1.610941 -0.506223 0.000000 
1.584926 -0.475755 0.000000 
1.558021 -0.446084 0.000000 
1.530226 -0.418850 0.000000 
1.501541 -0.395051 0.000000 
1.471986 -0.373109 0.000000 
1.441581 -0.350808 0.000000 
1.410320 -0.326608 0.000000 
1.378094 -0.301695 0.000000 
1.344766 -0.277932 0.000000 
1.309894 -0.256623 0.000000 
1.271806 -0.236825 0.000000 
1.228526 -0.217033 0.000000 
1.195053 -0.203814 0.000000 
1.153265 -0.193770 0.000000 
1.098034 -0.190742 0.000000 
1.063774 -0.193060 0.000000 
1.024231 -0.198573 0.000000 
0.978762 -0.207760 0.000000 
1.785909 -0.856276 0.000000 
1.772778 -0.805788 0.000000 
1.760192 -0.763127 0.000000 
1.748120 -0.727396 0.000000 
1.725392 -0.673134 0.000000 
1.704340 -0.635822 0.000000 
1.684713 -0.608282 0.000000 
1.657338 -0.573256 0.000000 
1.631427 -0.541842 0.000000 
1.605803 -0.511819 0.000000 
1.579490 -0.481610 0.000000 
1.552294 -0.452208 0.000000 
1.524218 -0.425248 0.000000 
1.495268 -0.401723 0.000000 
1.465465 -0.380055 0.000000 
1.434830 -0.358023 0.000000 
1.403361 -0.334088 0.000000 
1.370950 -0.309433 0.000000 
1.337460 -0.285920 0.000000 
1.302451 -0.264855 0.000000 
1.264249 -0.245294 0.000000 
1.220872 -0.225738 0.000000 
1.187409 -0.212602 0.000000 
1.146026 -0.202200 0.000000 
1.091983 -0.197931 0.000000 
1.058733 -0.199159 0.000000 
1.020540 -0.203195 0.000000 
0.976812 -0.210463 0.000000 
1.794684 -0.844110 0.033333 
1.782029 -0.793348 0.033333 
1.769903 -0.750414 0.033333 
1.758276 -0.714413 0.033333 
1.736393 -0.659615 0.033333 
1.716131 -0.621778 0.033333 
1.697243 -0.593725 0.033333 
1.670892 -0.557953 0.033333 
1.645931 -0.525804 0.033333 
1.621218 -0.495032 0.033333 
1.595799 -0.464043 0.033333 
1.569477 -0.433835 0.033333 
1.542242 -0.406054 0.033333 
1.514088 -0.381706 0.033333 
1.485029 -0.359218 0.033333 
1.455082 -0.336376 0.033333 
1.424237 -0.311648 0.033333 
1.392382 -0.286219 0.033333 
1.359377 -0.261955 0.033333 
1.324779 -0.240160 0.033333 
1.286921 -0.219886 0.033333 
1.243833 -0.199622 0.033333 
1.210340 -0.186236 0.033333 
1.167743 -0.176908 0.033333 
1.110135 -0.176364 0.033333 
1.073857 -0.180862 0.033333 
1.031612 -0.189328 0.033333 
0.982662 -0.202353 0.033333 
1.791759 -0.848165 0.033333 
1.778945 -0.797494 0.033333 
1.766666 -0.754652 0.033333 
1.754891 -0.718740 0.033333 
1.732726 -0.664121 0.033333 
1.712201 -0.626459 0.033333 
1.693067 -0.598577 0.033333 
1.666374 -0.563054 0.033333 
1.641096 -0.531150 0.033333 
1.616080 -0.500628 0.033333 
1.590363 -0.469899 0.033333 
1.563749 -0.439959 0.033333 
1.536234 -0.412452 0.033333 
1.507815 -0.388378 0.033333 
1.478508 -0.366163 0.033333 
1.448331 -0.343592 0.033333 
1.417278 -0.319128 0.033333 
1.385238 -0.293957 0.033333 
1.352072 -0.269944 0.033333 
1.317336 -0.248392 0.033333 
1.279364 -0.228355 0.033333 
1.236179 -0.208328 0.033333 
1.202697 -0.195025 0.033333 
1.160504 -0.185339 0.033333 
1.104084 -0.183553 0.033333 
1.068815 -0.186961 0.033333 
1.027921 -0.193951 0.033333 
0.980712 -0.205056 0.033333 
1.788834 -0.852220 0.033333 
1.775862 -0.801641 0.033333 
1.763429 -0.758889 0.033333 
1.751506 -0.723068 0.033333 
1.729059 -0.668628 0.033333 
1.708271 -0.631141 0.033333 
1.688890 -0.603430 0.033333 
1.661856 -0.568155 0.033333 
1.636261 -0.536496 0.033333 
1.610941 -0.506223 0.033333 
1.584926 -0.475755 0.033333 
1.558021 -0.446084 0.033333 
1.530226 -0.418850 0.033333 
1.501541 -0.395051 0.033333 
1.471986 -0.373109 0.033333 
1.441581 -0.350808 0.033333 
1.410320 -0.326608 0.033333 
1.378094 -0.301695 0.033333 
1.344766 -0.277932 0.033333 
1.309894 -0.256623 0.033333 
1.271806 -0.236825 0.033333 
1.228526 -0.217033 0.033333 
1.195053 -0.203814 0.033333 
1.153265 -0.193770 0.033333 
1.098034 -0.190742 0.033333 
1.063774 -0.193060 0.033333 
1.024231 -0.198573 0.033333 
0.978762 -0.207760 0.033333 
1.785909 -0.856276 0.033333 
1.772778 -0.805788 0.033333 
1.760192 -0.763127 0.033333 
1.748120 -0.727396 0.033333 
1.725392 -0.673134 0.033333 
1.704340 -0.635822 0.033333 
1.684713 -0.608282 0.033333 
1.657338 -0.573256 0.033333 
1.631427 -0.541842 0.033333 
1.605803 -0.511819 0.033333 
1.579490 -0.481610 0.033333 
1.552294 -0.452208 0.033333 
1.524218 -0.425248 0.033333 
1.495268 -0.401723 0.033333 
1.465465 -0.380055 0.033333 
1.434830 -0.358023 0.033333 
1.403361 -0.334088 0.033333 
1.370950 -0.309433 0.033333 
1.337460 -0.285920 0.033333 
1.302451 -0.264855 0.033333 
1.264249 -0.245294 0.033333 
1.220872 -0.225738 0.033333 
1.187409 -0.212602 0.033333 
1.146026 -0.202200 0.033333 
1.091983 -0.197931 0.033333 
1.058733 -0.199159 0.033333 
1.020540 -0.203195 0.033333 
0.976812 -0.210463 0.033333 
1.794684 -0.844110 0.066667 
1.782029 -0.793348 0.066667 
1.769903 -0.750414 0.066667 
1.758276 -0.714413 0.066667 
1.736393 -0.659615 0.066667 
1.716131 -0.621778 0.066667 
1.697243 -0.593725 0.066667 
1.670892 -0.557953 0.066667 
1.645931 -0.525804 0.066667 
1.621218 -0.495032 0.066667 
1.595799 -0.464043 0.066667 
1.569477 -0.433835 0.066667 
1.542242 -0.406054 0.066667 
1.514088 -0.381706 0.066667 
1.485029 -0.359218 0.066667 
1.455082 -0.336376 0.066667 
1.424237 -0.311648 0.066667 
1.392382 -0.286219 0.066667 
1.359377 -0.261955 0.066667 
1.324779 -0.240160 0.066667 
1.286921 -0.219886 0.066667 
1.243833 -0.199622 0.066667 
1.210340 -0.186236 0.066667 
1.167743 -0.176908 0.066667 
1.110135 -0.176364 0.066667 
1.073857 -0.180862 0.066667 
1.031612 -0.189328 0.066667 
0.982662 -0.202353 0.066667 
1.791759 -0.848165 0.066667 
1.778945 -0.797494 0.066667 
1.766666 -0.754652 0.066667 
1.754891 -0.718740 0.066667 
1.732726 -0.664121 0.066667 
1.712201 -0.626459 0.066667 
1.693067 -0.598577 0.066667 
1.666374 -0.563054 0.066667 
1.641096 -0.531150 0.066667 
1.616080 -0.500628 0.066667 
1.590363 -0.469899 0.066667 
1.563749 -0.439959 0.066667 
1.536234 -0.412452 0.066667 
1.507815 -0.388378 0.066667 
1.478508 -0.366163 0.066667 
1.448331 -0.343592 0.066667 
1.417278 -0.319128 0.066667 
1.385238 -0.293957 0.066667 
1.352072 -0.269944 0.066667 
1.317336 -0.248392 0.066667 
1.279364 -0.228355 0.066667 
1.236179 -0.208328 0.066667 
1.202697 -0.195025 0.066667 
1.160504 -0.185339 0.066667 
1.104084 -0.183553 0.066667 
1.068815 -0.186961 0.066667 
1.027921 -0.193951 0.066667 
0.980712 -0.205056 0.066667 
1.788834 -0.852220 0.066667 
1.775862 -0.801641 0.066667 
1.763429 -0.758889 0.066667 
1.751506 -0.723068 0.066667 
1.729059 -0.668628 0.066667 
1.708271 -0.631141 0.066667 
1.688890 -0.603430 0.066667 
1.661856 -0.568155 0.066667 
1.636261 -0.536496 0.066667 
1.610941 -0.506223 0.066667 
1.584926 -0.475755 0.066667 
1.558021 -0.446084 0.066667 
1.530226 -0.418850 0.066667 
1.501541 -0.395051 0.066667 
1.471986 -0.373109 0.066667 
1.441581 -0.350808 0.066667 
1.410320 -0.326608 0.066667 
1.378094 -0.301695 0.066667 
1.344766 -0.277932 0.066667 
1.309894 -0.256623 0.066667 
1.271806 -0.236825 0.066667 
1.228526 -0.217033 0.066667 
1.195053 -0.203814 0.066667 
1.153265 -0.193770 0.066667 
1.098034 -0.190742 0.066667 
1.063774 -0.193060 0.066667 
1.024231 -0.198573 0.066667 
0.978762 -0.207760 0.066667 
1.785909 -0.856276 0.066667 
1.772778 -0.805788 0.066667 
1.760192 -0.763127 0.066667 
1.748120 -0.727396 0.066667 
1.725392 -0.673134 0.066667 
1.704340 -0.635822 0.066667 
1.684713 -0.608282 0.066667 
1.657338 -0.573256 0.066667 
1.631427 -0.541842 0.066667 
1.605803 -0.511819 0.066667 
1.579490 -0.481610 0.066667 
1.552294 -0.452208 0.066667 
1.524218 -0.425248 0.066667 
1.495268 -0.401723 0.066667 
1.465465 -0.380055 0.066667 
1.434830 -0.358023 0.066667 
1.403361 -0.334088 0.066667 
1.370950 -0.309433 0.066667 
1.337460 -0.285921 0.066667 
1.302451 -0.264855 0.066667 
1.264249 -0.245294 0.066667 
1.220872 -0.225738 0.066667 
1.187409 -0.212602 0.066667 
1.146026 -0.202200 0.066667 
1.091983 -0.197931 0.066667 
1.058733 -0.199159 0.066667 
1.020540 -0.203195 0.066667 
0.976812 -0.210463 0.066667 
1.794684 -0.844110 0.100000 
1.782029 -0.793348 0.100000 
1.769903 -0.750414 0.100000 
1.758276 -0.714413 0.100000 
1.736393 -0.659615 0.100000 
1.716131 -0.621778 0.100000 
1.697243 -0.593725 0.100000 
1.670892 -0.557953 0.100000 
1.645931 -0.525804 0.100000 
1.621218 -0.495032 0.100000 
1.595799 -0.464043 0.100000 
1.569477 -0.433835 0.100000 
1.542242 -0.406054 0.100000 
1.514088 -0.381706 0.100000 
1.485029 -0.359218 0.100000 
1.455082 -0.336376 0.100000 
1.424237 -0.311648 0.100000 
1.392382 -0.286219 0.100000 
1.359377 -0.261955 0.100000 
1.324779 -0.240160 0.100000 
1.286921 -0.219886 0.100000 
1.243833 -0.199622 0.100000 
1.210340 -0.186236 0.100000 
1.167743 -0.176908 0.100000 
1.110135 -0.176364 0.100000 
1.073857 -0.180862 0.100000 
1.031612 -0.189328 0.100000 
0.982662 -0.202353 0.100000 
1.791759 -0.848165 0.100000 
1.778945 -0.797494 0.100000 
1.766666 -0.754652 0.100000 
1.754891 -0.718740 0.100000 
1.732726 -0.664121 0.100000 
1.712201 -0.626459 0.100000 
1.693067 -0.598577 0.100000 
1.666374 -0.563054 0.100000 
1.641096 -0.531150 0.100000 
1.616080 -0.500628 0.100000 
1.590363 -0.469899 0.100000 
1.563749 -0.439959 0.100000 
1.536234 -0.412452 0.100000 
1.507815 -0.388378 0.100000 
1.478508 -0.366163 0.100000 
1.448331 -0.343592 0.100000 
1.417278 -0.319128 0.100000 
1.385238 -0.293957 0.100000 
1.352072 -0.269944 0.100000 
1.317336 -0.248392 0.100000 
1.279364 -0.228355 0.100000 
1.236179 -0.208328 0.100000 
1.202697 -0.195025 0.100000 
1.160504 -0.185339 0.100000 
1.104084 -0.183553 0.100000 
1.068815 -0.186961 0.100000 
1.027921 -0.193951 0.100000 
0.980712 -0.205056 0.100000 
1.788834 -0.852220 0.100000 
1.775862 -0.801641 0.100000 
1.763429 -0.758889 0.100000 
1.751506 -0.723068 0.100000 
1.729059 -0.668628 0.100000 
1.708271 -0.631141 0.100000 
1.688890 -0.603430 0.100000 
1.661856 -0.568155 0.100000 
1.636261 -0.536496 0.100000 
1.610941 -0.506223 0.100000 
1.584926 -0.475755 0.100000 
1.558021 -0.446084 0.100000 
1.530226 -0.418850 0.100000 
1.501541 -0.395051 0.100000 
1.471986 -0.373109 0.100000 
1.441581 -0.350808 0.100000 
1.410320 -0.326608 0.100000 
1.378094 -0.301695 0.100000 
1.344766 -0.277932 0.100000 
1.309894 -0.256623 0.100000 
1.271806 -0.236825 0.100000 
1.228526 -0.217033 0.100000 
1.195053 -0.203814 0.100000 
1.153265 -0.193770 0.100000 
1.098034 -0.190742 0.100000 
1.063774 -0.193060 0.100000 
1.024231 -0.198573 0.100000 
0.978762 -0.207760 0.100000 
1.785909 -0.856276 0.100000 
1.772778 -0.805788 0.100000 
1.760192 -0.763127 0.100000 
1.748120 -0.727396 0.100000 
1.725392 -0.673134 0.100000 
1.704340 -0.635822 0.100000 
1.684713 -0.608282 0.100000 
1.657338 -0.573256 0.100000 
1.631427 -0.541842 0.100000 
1.605803 -0.511819 0.100000 
1.579490 -0.481610 0.100000 
1.552294 -0.452208 0.100000 
1.524218 -0.425248 0.100000 
1.495268 -0.401723 0.100000 
1.465465 -0.380055 0.100000 
1.434830 -0.358023 0.100000 
1.403361 -0.334088 0.100000 
1.370950 -0.309433 0.100000 
1.337460 -0.285921 0.100000 
1.302451 -0.264855 0.100000 
1.264249 -0.245294 0.100000 
1.220872 -0.225738 0.100000 
1.187409 -0.212602 0.100000 
1.146026 -0.202200 0.100000 
1.091983 -0.197931 0.100000 
1.058733 -0.199159 0.100000 
1.020540 -0.203195 0.100000 
0.976812 -0.210463 0.100000 
