VARIABLES = "CoordinateX", "CoordinateY", "CoordinateZ"
Zone T="FFD_vol0" I=10 J=2 K=2
DATAPACKING=POINT
1.000000 -0.012384 0.000000 
0.973716 0.098506 0.000000 
0.899672 0.188310 0.000000 
0.763006 0.292031 0.000000 
0.615441 0.340641 0.000000 
0.384559 0.340641 0.000000 
0.236994 0.292031 0.000000 
0.100328 0.188310 0.000000 
0.026284 0.098506 0.000000 
0.000000 -0.012384 0.000000 
1.000000 -0.022384 0.000000 
0.962798 0.000623 0.000000 
0.913486 0.039010 0.000000 
0.797974 0.135212 0.000000 
0.643930 0.209121 0.000000 
0.356070 0.209121 0.000000 
0.202026 0.135212 0.000000 
0.086514 0.039010 0.000000 
0.037202 0.000623 0.000000 
0.000000 -0.022384 0.000000 
1.000000 -0.012384 0.100000 
0.973716 0.098506 0.100000 
0.899672 0.188310 0.100000 
0.763006 0.292031 0.100000 
0.615441 0.340641 0.100000 
0.384559 0.340641 0.100000 
0.236994 0.292031 0.100000 
0.100328 0.188310 0.100000 
0.026284 0.098506 0.100000 
0.000000 -0.012384 0.100000 
1.000000 -0.022384 0.100000 
0.962798 0.000623 0.100000 
0.913486 0.039010 0.100000 
0.797974 0.135212 0.100000 
0.643930 0.209121 0.100000 
0.356070 0.209121 0.100000 
0.202026 0.135212 0.100000 
0.086514 0.039010 0.100000 
0.037202 0.000623 0.100000 
0.000000 -0.022384 0.100000 
Zone T="embedding_vol" I=28 J=4 K=4
DATAPACKING=POINT
1.000000 -0.012384 0.000000 
0.990850 0.022219 0.000000 
0.980958 0.052434 0.000000 
0.970376 0.078763 0.000000 
0.947360 0.121762 0.000000 
0.922228 0.155221 0.000000 
0.895405 0.183146 0.000000 
0.852785 0.221013 0.000000 
0.807865 0.254544 0.000000 
0.761190 0.282846 0.000000 
0.712765 0.305213 0.000000 
0.660448 0.321697 0.000000 
0.601555 0.332539 0.000000 
0.534880 0.337941 0.000000 
0.465120 0.337941 0.000000 
0.398445 0.332539 0.000000 
0.339552 0.321697 0.000000 
0.287235 0.305213 0.000000 
0.238810 0.282846 0.000000 
0.192135 0.254544 0.000000 
0.147215 0.221013 0.000000 
0.104595 0.183146 0.000000 
0.077772 0.155221 0.000000 
0.052640 0.121762 0.000000 
0.029624 0.078763 0.000000 
0.019042 0.052434 0.000000 
0.009150 0.022219 0.000000 
0.000000 -0.012384 0.000000 
1.000000 -0.015717 0.000000 
0.989912 0.009865 0.000000 
0.979586 0.032457 0.000000 
0.969004 0.052419 0.000000 
0.946999 0.085904 0.000000 
0.923753 0.113215 0.000000 
0.899124 0.137246 0.000000 
0.859421 0.171624 0.000000 
0.816683 0.203790 0.000000 
0.771310 0.232396 0.000000 
0.723143 0.256239 0.000000 
0.669776 0.274697 0.000000 
0.608246 0.287294 0.000000 
0.537318 0.293632 0.000000 
0.462682 0.293632 0.000000 
0.391754 0.287294 0.000000 
0.330224 0.274697 0.000000 
0.276857 0.256239 0.000000 
0.228690 0.232396 0.000000 
0.183317 0.203790 0.000000 
0.140579 0.171624 0.000000 
0.100876 0.137246 0.000000 
0.076247 0.113215 0.000000 
0.053001 0.085904 0.000000 
0.030996 0.052419 0.000000 
0.020414 0.032457 0.000000 
0.010088 0.009865 0.000000 
0.000000 -0.015717 0.000000 
1.000000 -0.019050 0.000000 
0.988975 -0.002488 0.000000 
0.978215 0.012479 0.000000 
0.967632 0.026075 0.000000 
0.946637 0.050046 0.000000 
0.925278 0.071208 0.000000 
0.902843 0.091347 0.000000 
0.866057 0.122236 0.000000 
0.825501 0.153036 0.000000 
0.781431 0.181946 0.000000 
0.733520 0.207265 0.000000 
0.679104 0.227697 0.000000 
0.614937 0.242048 0.000000 
0.539756 0.249324 0.000000 
0.460244 0.249324 0.000000 
0.385063 0.242048 0.000000 
0.320896 0.227697 0.000000 
0.266480 0.207265 0.000000 
0.218569 0.181946 0.000000 
0.174499 0.153036 0.000000 
0.133943 0.122236 0.000000 
0.097157 0.091347 0.000000 
0.074722 0.071208 0.000000 
0.053363 0.050046 0.000000 
0.032368 0.026075 0.000000 
0.021785 0.012479 0.000000 
0.011025 -0.002488 0.000000 
0.000000 -0.019050 0.000000 
1.000000 -0.022384 0.000000 
0.988037 -0.014842 0.000000 
0.976844 -0.007498 0.000000 
0.966259 -0.000269 0.000000 
0.946275 0.014188 0.000000 
0.926804 0.029201 0.000000 
0.906562 0.045447 0.000000 
0.872693 0.072847 0.000000 
0.834319 0.102282 0.000000 
0.791552 0.131497 0.000000 
0.743897 0.158291 0.000000 
0.688432 0.180697 0.000000 
0.621627 0.196803 0.000000 
0.542195 0.205015 0.000000 
0.457805 0.205015 0.000000 
0.378373 0.196803 0.000000 
0.311568 0.180697 0.000000 
0.256103 0.158291 0.000000 
0.208448 0.131497 0.000000 
0.165681 0.102282 0.000000 
0.127307 0.072847 0.000000 
0.093438 0.045447 0.000000 
0.073196 0.029201 0.000000 
0.053725 0.014188 0.000000 
0.033741 -0.000269 0.000000 
0.023156 -0.007498 0.000000 
0.011963 -0.014842 0.000000 
0.000000 -0.022384 0.000000 
1.000000 -0.012384 0.033333 
0.990850 0.022219 0.033333 
0.980958 0.052434 0.033333 
0.970376 0.078763 0.033333 
0.947360 0.121762 0.033333 
0.922228 0.155221 0.033333 
0.895405 0.183146 0.033333 
0.852785 0.221013 0.033333 
0.807865 0.254544 0.033333 
0.761190 0.282846 0.033333 
0.712765 0.305213 0.033333 
0.660448 0.321697 0.033333 
0.601555 0.332539 0.033333 
0.534880 0.337941 0.033333 
0.465120 0.337941 0.033333 
0.398445 0.332539 0.033333 
0.339552 0.321697 0.033333 
0.287235 0.305213 0.033333 
0.238810 0.282846 0.033333 
0.192135 0.254544 0.033333 
0.147215 0.221013 0.033333 
0.104595 0.183146 0.033333 
0.077772 0.155221 0.033333 
0.052640 0.121762 0.033333 
0.029624 0.078763 0.033333 
0.019042 0.052434 0.033333 
0.009150 0.022219 0.033333 
0.000000 -0.012384 0.033333 
1.000000 -0.015717 0.033333 
0.989912 0.009865 0.033333 
0.979586 0.032457 0.033333 
0.969004 0.052419 0.033333 
0.946999 0.085904 0.033333 
0.923753 0.113215 0.033333 
0.899124 0.137246 0.033333 
0.859421 0.171624 0.033333 
0.816683 0.203790 0.033333 
0.771310 0.232396 0.033333 
0.723143 0.256239 0.033333 
0.669776 0.274697 0.033333 
0.608246 0.287294 0.033333 
0.537318 0.293632 0.033333 
0.462682 0.293632 0.033333 
0.391754 0.287294 0.033333 
0.330224 0.274697 0.033333 
0.276857 0.256239 0.033333 
0.228690 0.232396 0.033333 
0.183317 0.203790 0.033333 
0.140579 0.171624 0.033333 
0.100876 0.137246 0.033333 
0.076247 0.113215 0.033333 
0.053001 0.085904 0.033333 
0.030996 0.052419 0.033333 
0.020414 0.032457 0.033333 
0.010088 0.009865 0.033333 
0.000000 -0.015717 0.033333 
1.000000 -0.019050 0.033333 
0.988975 -0.002488 0.033333 
0.978215 0.012479 0.033333 
0.967632 0.026075 0.033333 
0.946637 0.050046 0.033333 
0.925278 0.071208 0.033333 
0.902843 0.091347 0.033333 
0.866057 0.122236 0.033333 
0.825501 0.153036 0.033333 
0.781431 0.181946 0.033333 
0.733520 0.207265 0.033333 
0.679104 0.227697 0.033333 
0.614937 0.242048 0.033333 
0.539756 0.249324 0.033333 
0.460244 0.249324 0.033333 
0.385063 0.242048 0.033333 
0.320896 0.227697 0.033333 
0.266480 0.207265 0.033333 
0.218569 0.181946 0.033333 
0.174499 0.153036 0.033333 
0.133943 0.122236 0.033333 
0.097157 0.091347 0.033333 
0.074722 0.071208 0.033333 
0.053363 0.050046 0.033333 
0.032368 0.026075 0.033333 
0.021785 0.012479 0.033333 
0.011025 -0.002488 0.033333 
0.000000 -0.019050 0.033333 
1.000000 -0.022384 0.033333 
0.988037 -0.014842 0.033333 
0.976844 -0.007498 0.033333 
0.966259 -0.000269 0.033333 
0.946275 0.014188 0.033333 
0.926804 0.029201 0.033333 
0.906562 0.045447 0.033333 
0.872693 0.072847 0.033333 
0.834319 0.102282 0.033333 
0.791552 0.131497 0.033333 
0.743897 0.158291 0.033333 
0.688432 0.180697 0.033333 
0.621627 0.196803 0.033333 
0.542195 0.205015 0.033333 
0.457805 0.205015 0.033333 
0.378373 0.196803 0.033333 
0.311568 0.180697 0.033333 
0.256103 0.158291 0.033333 
0.208448 0.131497 0.033333 
0.165681 0.102282 0.033333 
0.127307 0.072847 0.033333 
0.093438 0.045447 0.033333 
0.073196 0.029201 0.033333 
0.053725 0.014188 0.033333 
0.033741 -0.000269 0.033333 
0.023156 -0.007498 0.033333 
0.011963 -0.014842 0.033333 
0.000000 -0.022384 0.033333 
1.000000 -0.012384 0.066667 
0.990850 0.022219 0.066667 
0.980958 0.052434 0.066667 
0.970376 0.078763 0.066667 
0.947360 0.121762 0.066667 
0.922228 0.155221 0.066667 
0.895405 0.183146 0.066667 
0.852785 0.221013 0.066667 
0.807865 0.254544 0.066667 
0.761190 0.282846 0.066667 
0.712765 0.305213 0.066667 
0.660448 0.321697 0.066667 
0.601555 0.332539 0.066667 
0.534880 0.337941 0.066667 
0.465120 0.337941 0.066667 
0.398445 0.332539 0.066667 
0.339552 0.321697 0.066667 
0.287235 0.305213 0.066667 
0.238810 0.282846 0.066667 
0.192135 0.254544 0.066667 
0.147215 0.221013 0.066667 
0.104595 0.183146 0.066667 
0.077772 0.155221 0.066667 
0.052640 0.121762 0.066667 
0.029624 0.078763 0.066667 
0.019042 0.052434 0.066667 
0.009150 0.022219 0.066667 
0.000000 -0.012384 0.066667 
1.000000 -0.015717 0.066667 
0.989912 0.009865 0.066667 
0.979586 0.032457 0.066667 
0.969004 0.052419 0.066667 
0.946999 0.085904 0.066667 
0.923753 0.113215 0.066667 
0.899124 0.137246 0.066667 
0.859421 0.171624 0.066667 
0.816683 0.203790 0.066667 
0.771310 0.232396 0.066667 
0.723143 0.256239 0.066667 
0.669776 0.274697 0.066667 
0.608246 0.287294 0.066667 
0.537318 0.293632 0.066667 
0.462682 0.293632 0.066667 
0.391754 0.287294 0.066667 
0.330224 0.274697 0.066667 
0.276857 0.256239 0.066667 
0.228690 0.232396 0.066667 
0.183317 0.203790 0.066667 
0.140579 0.171624 0.066667 
0.100876 0.137246 0.066667 
0.076247 0.113215 0.066667 
0.053001 0.085904 0.066667 
0.030996 0.052419 0.066667 
0.020414 0.032457 0.066667 
0.010088 0.009865 0.066667 
0.000000 -0.015717 0.066667 
1.000000 -0.019050 0.066667 
0.988975 -0.002488 0.066667 
0.978215 0.012479 0.066667 
0.967632 0.026075 0.066667 
0.946637 0.050046 0.066667 
0.925278 0.071208 0.066667 
0.902843 0.091347 0.066667 
0.866057 0.122236 0.066667 
0.825501 0.153036 0.066667 
0.781431 0.181946 0.066667 
0.733520 0.207265 0.066667 
0.679104 0.227697 0.066667 
0.614937 0.242048 0.066667 
0.539756 0.249324 0.066667 
0.460244 0.249324 0.066667 
0.385063 0.242048 0.066667 
0.320896 0.227697 0.066667 
0.266480 0.207265 0.066667 
0.218569 0.181946 0.066667 
0.174499 0.153036 0.066667 
0.133943 0.122236 0.066667 
0.097157 0.091347 0.066667 
0.074722 0.071208 0.066667 
0.053363 0.050046 0.066667 
0.032368 0.026075 0.066667 
0.021785 0.012479 0.066667 
0.011025 -0.002488 0.066667 
0.000000 -0.019050 0.066667 
1.000000 -0.022384 0.066667 
0.988037 -0.014842 0.066667 
0.976844 -0.007498 0.066667 
0.966259 -0.000269 0.066667 
0.946275 0.014188 0.066667 
0.926804 0.029201 0.066667 
0.906562 0.045447 0.066667 
0.872693 0.072847 0.066667 
0.834319 0.102282 0.066667 
0.791552 0.131497 0.066667 
0.743897 0.158291 0.066667 
0.688432 0.180697 0.066667 
0.621627 0.196803 0.066667 
0.542195 0.205015 0.066667 
0.457805 0.205015 0.066667 
0.378373 0.196803 0.066667 
0.311568 0.180697 0.066667 
0.256103 0.158291 0.066667 
0.208448 0.131497 0.066667 
0.165681 0.102282 0.066667 
0.127307 0.072847 0.066667 
0.093438 0.045447 0.066667 
0.073196 0.029201 0.066667 
0.053725 0.014188 0.066667 
0.033741 -0.000269 0.066667 
0.023156 -0.007498 0.066667 
0.011963 -0.014842 0.066667 
0.000000 -0.022384 0.066667 
1.000000 -0.012384 0.100000 
0.990850 0.022219 0.100000 
0.980958 0.052434 0.100000 
0.970376 0.078763 0.100000 
0.947360 0.121762 0.100000 
0.922228 0.155221 0.100000 
0.895405 0.183146 0.100000 
0.852785 0.221013 0.100000 
0.807865 0.254544 0.100000 
0.761190 0.282846 0.100000 
0.712765 0.305213 0.100000 
0.660448 0.321697 0.100000 
0.601555 0.332539 0.100000 
0.534880 0.337941 0.100000 
0.465120 0.337941 0.100000 
0.398445 0.332539 0.100000 
0.339552 0.321697 0.100000 
0.287235 0.305213 0.100000 
0.238810 0.282846 0.100000 
0.192135 0.254544 0.100000 
0.147215 0.221013 0.100000 
0.104595 0.183146 0.100000 
0.077772 0.155221 0.100000 
0.052640 0.121762 0.100000 
0.029624 0.078763 0.100000 
0.019042 0.052434 0.100000 
0.009150 0.022219 0.100000 
0.000000 -0.012384 0.100000 
1.000000 -0.015717 0.100000 
0.989912 0.009865 0.100000 
0.979586 0.032457 0.100000 
0.969004 0.052419 0.100000 
0.946999 0.085904 0.100000 
0.923753 0.113215 0.100000 
0.899124 0.137246 0.100000 
0.859421 0.171624 0.100000 
0.816683 0.203790 0.100000 
0.771310 0.232396 0.100000 
0.723143 0.256239 0.100000 
0.669776 0.274697 0.100000 
0.608246 0.287294 0.100000 
0.537318 0.293632 0.100000 
0.462682 0.293632 0.100000 
0.391754 0.287294 0.100000 
0.330224 0.274697 0.100000 
0.276857 0.256239 0.100000 
0.228690 0.232396 0.100000 
0.183317 0.203790 0.100000 
0.140579 0.171624 0.100000 
0.100876 0.137246 0.100000 
0.076247 0.113215 0.100000 
0.053001 0.085904 0.100000 
0.030996 0.052419 0.100000 
0.020414 0.032457 0.100000 
0.010088 0.009865 0.100000 
0.000000 -0.015717 0.100000 
1.000000 -0.019050 0.100000 
0.988975 -0.002488 0.100000 
0.978215 0.012479 0.100000 
0.967632 0.026075 0.100000 
0.946637 0.050046 0.100000 
0.925278 0.071208 0.100000 
0.902843 0.091347 0.100000 
0.866057 0.122236 0.100000 
0.825501 0.153036 0.100000 
0.781431 0.181946 0.100000 
0.733520 0.207265 0.100000 
0.679104 0.227697 0.100000 
0.614937 0.242048 0.100000 
0.539756 0.249324 0.100000 
0.460244 0.249324 0.100000 
0.385063 0.242048 0.100000 
0.320896 0.227697 0.100000 
0.266480 0.207265 0.100000 
0.218569 0.181946 0.100000 
0.174499 0.153036 0.100000 
0.133943 0.122236 0.100000 
0.097157 0.091347 0.100000 
0.074722 0.071208 0.100000 
0.053363 0.050046 0.100000 
0.032368 0.026075 0.100000 
0.021785 0.012479 0.100000 
0.011025 -0.002488 0.100000 
0.000000 -0.019050 0.100000 
1.000000 -0.022384 0.100000 
0.988037 -0.014842 0.100000 
0.976844 -0.007498 0.100000 
0.966259 -0.000269 0.100000 
0.946275 0.014188 0.100000 
0.926804 0.029201 0.100000 
0.906562 0.045447 0.100000 
0.872693 0.072847 0.100000 
0.834319 0.102282 0.100000 
0.791552 0.131497 0.100000 
0.743897 0.158291 0.100000 
0.688432 0.180697 0.100000 
0.621627 0.196803 0.100000 
0.542195 0.205015 0.100000 
0.457805 0.205015 0.100000 
0.378373 0.196803 0.100000 
0.311568 0.180697 0.100000 
0.256103 0.158291 0.100000 
0.208448 0.131497 0.100000 
0.165681 0.102282 0.100000 
0.127307 0.072847 0.100000 
0.093438 0.045447 0.100000 
0.073196 0.029201 0.100000 
0.053725 0.014188 0.100000 
0.033741 -0.000269 0.100000 
0.023156 -0.007498 0.100000 
0.011963 -0.014842 0.100000 
0.000000 -0.022384 0.100000 
Zone T="FFD_vol1" I=10 J=2 K=2
DATAPACKING=POINT
1.796286 -0.711007 0.000000 
1.755784 -0.604978 0.000000 
1.692085 -0.514261 0.000000 
1.620041 -0.425034 0.000000 
1.539926 -0.330426 0.000000 
1.451829 -0.260213 0.000000 
1.355763 -0.184638 0.000000 
1.248388 -0.127936 0.000000 
1.133566 -0.097577 0.000000 
0.976351 -0.118144 0.000000 
1.787668 -0.723285 0.000000 
1.745725 -0.618098 0.000000 
1.679586 -0.529031 0.000000 
1.604832 -0.441963 0.000000 
1.522081 -0.349848 0.000000 
1.431764 -0.282146 0.000000 
1.334044 -0.208921 0.000000 
1.225695 -0.154343 0.000000 
1.110508 -0.125409 0.000000 
0.970606 -0.126329 0.000000 
1.796286 -0.711007 0.100000 
1.755784 -0.604978 0.100000 
1.692085 -0.514261 0.100000 
1.620041 -0.425034 0.100000 
1.539926 -0.330426 0.100000 
1.451829 -0.260213 0.100000 
1.355763 -0.184638 0.100000 
1.248388 -0.127936 0.100000 
1.133566 -0.097577 0.100000 
0.976351 -0.118144 0.100000 
1.787668 -0.723285 0.100000 
1.745725 -0.618098 0.100000 
1.679586 -0.529031 0.100000 
1.604832 -0.441963 0.100000 
1.522081 -0.349848 0.100000 
1.431764 -0.282146 0.100000 
1.334044 -0.208921 0.100000 
1.225695 -0.154343 0.100000 
1.110508 -0.125409 0.100000 
0.970606 -0.126329 0.100000 
Zone T="embedding_vol" I=28 J=4 K=4
DATAPACKING=POINT
1.796286 -0.711007 0.000000 
1.783099 -0.677838 0.000000 
1.770514 -0.648729 0.000000 
1.758493 -0.623243 0.000000 
1.735982 -0.581404 0.000000 
1.715256 -0.548840 0.000000 
1.696003 -0.522069 0.000000 
1.669181 -0.486799 0.000000 
1.643802 -0.454800 0.000000 
1.618696 -0.424137 0.000000 
1.592888 -0.393383 0.000000 
1.566187 -0.363134 0.000000 
1.538596 -0.334492 0.000000 
1.510117 -0.308193 0.000000 
1.480752 -0.283503 0.000000 
1.450501 -0.259320 0.000000 
1.419344 -0.234873 0.000000 
1.387177 -0.210729 0.000000 
1.353878 -0.187784 0.000000 
1.319013 -0.166738 0.000000 
1.280907 -0.147504 0.000000 
1.237578 -0.129796 0.000000 
1.203933 -0.119084 0.000000 
1.161225 -0.111154 0.000000 
1.103594 -0.108238 0.000000 
1.067352 -0.109357 0.000000 
1.025181 -0.112566 0.000000 
0.976351 -0.118144 0.000000 
1.793413 -0.715100 0.000000 
1.780069 -0.682024 0.000000 
1.767332 -0.653008 0.000000 
1.755164 -0.627615 0.000000 
1.732374 -0.585957 0.000000 
1.711387 -0.553571 0.000000 
1.691889 -0.526975 0.000000 
1.664730 -0.491958 0.000000 
1.639037 -0.460208 0.000000 
1.613630 -0.429799 0.000000 
1.587528 -0.399308 0.000000 
1.560539 -0.369331 0.000000 
1.532671 -0.340967 0.000000 
1.503930 -0.314946 0.000000 
1.474320 -0.290533 0.000000 
1.443844 -0.266622 0.000000 
1.412482 -0.242442 0.000000 
1.380134 -0.218558 0.000000 
1.346676 -0.195865 0.000000 
1.311677 -0.175065 0.000000 
1.273459 -0.156071 0.000000 
1.230038 -0.138600 0.000000 
1.196403 -0.127971 0.000000 
1.154095 -0.119677 0.000000 
1.097637 -0.115504 0.000000 
1.062390 -0.115520 0.000000 
1.021551 -0.117235 0.000000 
0.974436 -0.120873 0.000000 
1.790541 -0.719192 0.000000 
1.777039 -0.686211 0.000000 
1.764150 -0.657287 0.000000 
1.751834 -0.631986 0.000000 
1.728765 -0.590510 0.000000 
1.707517 -0.558303 0.000000 
1.687775 -0.531881 0.000000 
1.660278 -0.497117 0.000000 
1.634271 -0.465616 0.000000 
1.608565 -0.435460 0.000000 
1.582167 -0.405234 0.000000 
1.554890 -0.375529 0.000000 
1.526745 -0.347442 0.000000 
1.497743 -0.321699 0.000000 
1.467889 -0.297562 0.000000 
1.437187 -0.273924 0.000000 
1.405621 -0.250011 0.000000 
1.373090 -0.226387 0.000000 
1.339474 -0.203947 0.000000 
1.304341 -0.183392 0.000000 
1.266011 -0.164637 0.000000 
1.222497 -0.147403 0.000000 
1.188873 -0.136857 0.000000 
1.146966 -0.128201 0.000000 
1.091680 -0.122771 0.000000 
1.057427 -0.121684 0.000000 
1.017920 -0.121905 0.000000 
0.972521 -0.123601 0.000000 
1.787668 -0.723285 0.000000 
1.774009 -0.690397 0.000000 
1.760968 -0.661566 0.000000 
1.748505 -0.636357 0.000000 
1.725157 -0.595064 0.000000 
1.703647 -0.563035 0.000000 
1.683662 -0.536787 0.000000 
1.655826 -0.502275 0.000000 
1.629506 -0.471024 0.000000 
1.603499 -0.441122 0.000000 
1.576807 -0.411159 0.000000 
1.549242 -0.381727 0.000000 
1.520820 -0.353917 0.000000 
1.491556 -0.328452 0.000000 
1.461457 -0.304591 0.000000 
1.430530 -0.281226 0.000000 
1.398759 -0.257580 0.000000 
1.366047 -0.234216 0.000000 
1.332272 -0.212029 0.000000 
1.297005 -0.191718 0.000000 
1.258564 -0.173203 0.000000 
1.214956 -0.156206 0.000000 
1.181343 -0.145744 0.000000 
1.139836 -0.136724 0.000000 
1.085722 -0.130037 0.000000 
1.052465 -0.127847 0.000000 
1.014289 -0.126574 0.000000 
0.970606 -0.126329 0.000000 
1.796286 -0.711007 0.033333 
1.783099 -0.677838 0.033333 
1.770514 -0.648729 0.033333 
1.758493 -0.623243 0.033333 
1.735982 -0.581404 0.033333 
1.715256 -0.548840 0.033333 
1.696003 -0.522069 0.033333 
1.669181 -0.486799 0.033333 
1.643802 -0.454800 0.033333 
1.618696 -0.424137 0.033333 
1.592888 -0.393383 0.033333 
1.566187 -0.363134 0.033333 
1.538596 -0.334492 0.033333 
1.510117 -0.308193 0.033333 
1.480752 -0.283503 0.033333 
1.450501 -0.259320 0.033333 
1.419344 -0.234873 0.033333 
1.387177 -0.210729 0.033333 
1.353878 -0.187784 0.033333 
1.319013 -0.166738 0.033333 
1.280907 -0.147504 0.033333 
1.237578 -0.129796 0.033333 
1.203933 -0.119084 0.033333 
1.161225 -0.111154 0.033333 
1.103594 -0.108238 0.033333 
1.067352 -0.109357 0.033333 
1.025181 -0.112566 0.033333 
0.976351 -0.118144 0.033333 
1.793413 -0.715100 0.033333 
1.780069 -0.682024 0.033333 
1.767332 -0.653008 0.033333 
1.755164 -0.627615 0.033333 
1.732374 -0.585957 0.033333 
1.711387 -0.553571 0.033333 
1.691889 -0.526975 0.033333 
1.664730 -0.491958 0.033333 
1.639037 -0.460208 0.033333 
1.613630 -0.429799 0.033333 
1.587528 -0.399308 0.033333 
1.560539 -0.369331 0.033333 
1.532671 -0.340967 0.033333 
1.503930 -0.314946 0.033333 
1.474320 -0.290533 0.033333 
1.443844 -0.266622 0.033333 
1.412482 -0.242442 0.033333 
1.380134 -0.218558 0.033333 
1.346676 -0.195865 0.033333 
1.311677 -0.175065 0.033333 
1.273459 -0.156071 0.033333 
1.230038 -0.138600 0.033333 
1.196403 -0.127971 0.033333 
1.154095 -0.119677 0.033333 
1.097637 -0.115504 0.033333 
1.062390 -0.115520 0.033333 
1.021551 -0.117235 0.033333 
0.974436 -0.120873 0.033333 
1.790541 -0.719192 0.033333 
1.777039 -0.686211 0.033333 
1.764150 -0.657287 0.033333 
1.751834 -0.631986 0.033333 
1.728765 -0.590510 0.033333 
1.707517 -0.558303 0.033333 
1.687775 -0.531881 0.033333 
1.660278 -0.497117 0.033333 
1.634271 -0.465616 0.033333 
1.608565 -0.435460 0.033333 
1.582167 -0.405234 0.033333 
1.554890 -0.375529 0.033333 
1.526745 -0.347442 0.033333 
1.497743 -0.321699 0.033333 
1.467889 -0.297562 0.033333 
1.437187 -0.273924 0.033333 
1.405621 -0.250011 0.033333 
1.373090 -0.226387 0.033333 
1.339474 -0.203947 0.033333 
1.304341 -0.183392 0.033333 
1.266011 -0.164637 0.033333 
1.222497 -0.147403 0.033333 
1.188873 -0.136857 0.033333 
1.146966 -0.128201 0.033333 
1.091680 -0.122771 0.033333 
1.057427 -0.121684 0.033333 
1.017920 -0.121905 0.033333 
0.972521 -0.123601 0.033333 
1.787668 -0.723285 0.033333 
1.774009 -0.690397 0.033333 
1.760968 -0.661566 0.033333 
1.748505 -0.636357 0.033333 
1.725157 -0.595064 0.033333 
1.703647 -0.563035 0.033333 
1.683662 -0.536787 0.033333 
1.655826 -0.502275 0.033333 
1.629506 -0.471024 0.033333 
1.603499 -0.441122 0.033333 
1.576807 -0.411159 0.033333 
1.549242 -0.381727 0.033333 
1.520820 -0.353917 0.033333 
1.491556 -0.328452 0.033333 
1.461457 -0.304591 0.033333 
1.430530 -0.281226 0.033333 
1.398759 -0.257580 0.033333 
1.366047 -0.234216 0.033333 
1.332272 -0.212029 0.033333 
1.297005 -0.191718 0.033333 
1.258564 -0.173203 0.033333 
1.214956 -0.156206 0.033333 
1.181343 -0.145744 0.033333 
1.139836 -0.136724 0.033333 
1.085722 -0.130037 0.033333 
1.052465 -0.127847 0.033333 
1.014289 -0.126574 0.033333 
0.970606 -0.126329 0.033333 
1.796286 -0.711007 0.066667 
1.783099 -0.677838 0.066667 
1.770514 -0.648729 0.066667 
1.758493 -0.623243 0.066667 
1.735982 -0.581404 0.066667 
1.715256 -0.548840 0.066667 
1.696003 -0.522069 0.066667 
1.669181 -0.486799 0.066667 
1.643802 -0.454800 0.066667 
1.618696 -0.424137 0.066667 
1.592888 -0.393383 0.066667 
1.566187 -0.363134 0.066667 
1.538596 -0.334492 0.066667 
1.510117 -0.308193 0.066667 
1.480752 -0.283503 0.066667 
1.450501 -0.259320 0.066667 
1.419344 -0.234873 0.066667 
1.387177 -0.210729 0.066667 
1.353878 -0.187784 0.066667 
1.319013 -0.166738 0.066667 
1.280907 -0.147504 0.066667 
1.237578 -0.129796 0.066667 
1.203933 -0.119084 0.066667 
1.161225 -0.111154 0.066667 
1.103594 -0.108238 0.066667 
1.067352 -0.109357 0.066667 
1.025181 -0.112566 0.066667 
0.976351 -0.118144 0.066667 
1.793413 -0.715100 0.066667 
1.780069 -0.682024 0.066667 
1.767332 -0.653008 0.066667 
1.755164 -0.627615 0.066667 
1.732374 -0.585957 0.066667 
1.711387 -0.553571 0.066667 
1.691889 -0.526975 0.066667 
1.664730 -0.491958 0.066667 
1.639037 -0.460208 0.066667 
1.613630 -0.429799 0.066667 
1.587528 -0.399308 0.066667 
1.560539 -0.369331 0.066667 
1.532671 -0.340967 0.066667 
1.503930 -0.314946 0.066667 
1.474320 -0.290533 0.066667 
1.443844 -0.266622 0.066667 
1.412482 -0.242442 0.066667 
1.380134 -0.218558 0.066667 
1.346676 -0.195865 0.066667 
1.311677 -0.175065 0.066667 
1.273459 -0.156071 0.066667 
1.230038 -0.138600 0.066667 
1.196403 -0.127971 0.066667 
1.154095 -0.119677 0.066667 
1.097637 -0.115504 0.066667 
1.062390 -0.115520 0.066667 
1.021551 -0.117235 0.066667 
0.974436 -0.120873 0.066667 
1.790541 -0.719192 0.066667 
1.777039 -0.686211 0.066667 
1.764150 -0.657287 0.066667 
1.751834 -0.631986 0.066667 
1.728765 -0.590510 0.066667 
1.707517 -0.558303 0.066667 
1.687775 -0.531881 0.066667 
1.660278 -0.497117 0.066667 
1.634271 -0.465616 0.066667 
1.608565 -0.435460 0.066667 
1.582167 -0.405234 0.066667 
1.554890 -0.375529 0.066667 
1.526745 -0.347442 0.066667 
1.497743 -0.321699 0.066667 
1.467889 -0.297562 0.066667 
1.437187 -0.273924 0.066667 
1.405621 -0.250011 0.066667 
1.373090 -0.226387 0.066667 
1.339474 -0.203947 0.066667 
1.304341 -0.183392 0.066667 
1.266011 -0.164637 0.066667 
1.222497 -0.147403 0.066667 
1.188873 -0.136857 0.066667 
1.146966 -0.128201 0.066667 
1.091680 -0.122771 0.066667 
1.057427 -0.121684 0.066667 
1.017920 -0.121905 0.066667 
0.972521 -0.123601 0.066667 
1.787668 -0.723285 0.066667 
1.774009 -0.690397 0.066667 
1.760968 -0.661566 0.066667 
1.748505 -0.636357 0.066667 
1.725157 -0.595064 0.066667 
1.703647 -0.563035 0.066667 
1.683662 -0.536787 0.066667 
1.655826 -0.502275 0.066667 
1.629506 -0.471024 0.066667 
1.603499 -0.441122 0.066667 
1.576807 -0.411159 0.066667 
1.549242 -0.381727 0.066667 
1.520820 -0.353917 0.066667 
1.491556 -0.328452 0.066667 
1.461457 -0.304591 0.066667 
1.430530 -0.281226 0.066667 
1.398759 -0.257580 0.066667 
1.366047 -0.234216 0.066667 
1.332272 -0.212029 0.066667 
1.297005 -0.191718 0.066667 
1.258564 -0.173203 0.066667 
1.214956 -0.156206 0.066667 
1.181343 -0.145744 0.066667 
1.139836 -0.136724 0.066667 
1.085722 -0.130037 0.066667 
1.052465 -0.127847 0.066667 
1.014289 -0.126574 0.066667 
0.970606 -0.126329 0.066667 
1.796286 -0.711007 0.100000 
1.783099 -0.677838 0.100000 
1.770514 -0.648729 0.100000 
1.758493 -0.623243 0.100000 
1.735982 -0.581404 0.100000 
1.715256 -0.548840 0.100000 
1.696003 -0.522069 0.100000 
1.669181 -0.486799 0.100000 
1.643802 -0.454800 0.100000 
1.618696 -0.424137 0.100000 
1.592888 -0.393383 0.100000 
1.566187 -0.363134 0.100000 
1.538596 -0.334492 0.100000 
1.510117 -0.308193 0.100000 
1.480752 -0.283503 0.100000 
1.450501 -0.259320 0.100000 
1.419344 -0.234873 0.100000 
1.387177 -0.210729 0.100000 
1.353878 -0.187784 0.100000 
1.319013 -0.166738 0.100000 
1.280907 -0.147504 0.100000 
1.237578 -0.129796 0.100000 
1.203933 -0.119084 0.100000 
1.161225 -0.111154 0.100000 
1.103594 -0.108238 0.100000 
1.067352 -0.109357 0.100000 
1.025181 -0.112566 0.100000 
0.976351 -0.118144 0.100000 
1.793413 -0.715100 0.100000 
1.780069 -0.682024 0.100000 
1.767332 -0.653008 0.100000 
1.755164 -0.627615 0.100000 
1.732374 -0.585957 0.100000 
1.711387 -0.553571 0.100000 
1.691889 -0.526975 0.100000 
1.664730 -0.491958 0.100000 
1.639037 -0.460208 0.100000 
1.613630 -0.429799 0.100000 
1.587528 -0.399308 0.100000 
1.560539 -0.369331 0.100000 
1.532671 -0.340967 0.100000 
1.503930 -0.314946 0.100000 
1.474320 -0.290533 0.100000 
1.443844 -0.266622 0.100000 
1.412482 -0.242442 0.100000 
1.380134 -0.218558 0.100000 
1.346676 -0.195865 0.100000 
1.311677 -0.175065 0.100000 
1.273459 -0.156071 0.100000 
1.230038 -0.138600 0.100000 
1.196403 -0.127971 0.100000 
1.154095 -0.119677 0.100000 
1.097637 -0.115504 0.100000 
1.062390 -0.115520 0.100000 
1.021551 -0.117235 0.100000 
0.974436 -0.120873 0.100000 
1.790541 -0.719192 0.100000 
1.777039 -0.686211 0.100000 
1.764150 -0.657287 0.100000 
1.751834 -0.631986 0.100000 
1.728765 -0.590510 0.100000 
1.707517 -0.558303 0.100000 
1.687775 -0.531881 0.100000 
1.660278 -0.497117 0.100000 
1.634271 -0.465616 0.100000 
1.608565 -0.435460 0.100000 
1.582167 -0.405234 0.100000 
1.554890 -0.375529 0.100000 
1.526745 -0.347442 0.100000 
1.497743 -0.321699 0.100000 
1.467889 -0.297562 0.100000 
1.437187 -0.273924 0.100000 
1.405621 -0.250011 0.100000 
1.373090 -0.226387 0.100000 
1.339474 -0.203947 0.100000 
1.304341 -0.183392 0.100000 
1.266011 -0.164637 0.100000 
1.222497 -0.147403 0.100000 
1.188873 -0.136857 0.100000 
1.146966 -0.128201 0.100000 
1.091680 -0.122771 0.100000 
1.057427 -0.121684 0.100000 
1.017920 -0.121905 0.100000 
0.972521 -0.123601 0.100000 
1.787668 -0.723285 0.100000 
1.774009 -0.690397 0.100000 
1.760968 -0.661566 0.100000 
1.748505 -0.636357 0.100000 
1.725157 -0.595064 0.100000 
1.703647 -0.563035 0.100000 
1.683662 -0.536787 0.100000 
1.655826 -0.502275 0.100000 
1.629506 -0.471024 0.100000 
1.603499 -0.441122 0.100000 
1.576807 -0.411159 0.100000 
1.549242 -0.381727 0.100000 
1.520820 -0.353917 0.100000 
1.491556 -0.328452 0.100000 
1.461457 -0.304591 0.100000 
1.430530 -0.281226 0.100000 
1.398759 -0.257580 0.100000 
1.366047 -0.234216 0.100000 
1.332272 -0.212029 0.100000 
1.297005 -0.191718 0.100000 
1.258564 -0.173203 0.100000 
1.214956 -0.156206 0.100000 
1.181343 -0.145744 0.100000 
1.139836 -0.136724 0.100000 
1.085722 -0.130037 0.100000 
1.052465 -0.127847 0.100000 
1.014289 -0.126574 0.100000 
0.970606 -0.126329 0.100000 
