VARIABLES = "CoordinateX", "CoordinateY", "CoordinateZ"
Zone T="FFD_vol0" I=10 J=2 K=2
DATAPACKING=POINT
1.000000 0.005000 0.000000 
0.973716 0.082916 0.000000 
0.899672 0.176556 0.000000 
0.763006 0.283129 0.000000 
0.615441 0.344709 0.000000 
0.384559 0.344709 0.000000 
0.236994 0.283129 0.000000 
0.100328 0.176556 0.000000 
0.026284 0.082916 0.000000 
0.000000 0.005000 0.000000 
1.000000 -0.005000 0.000000 
0.962798 -0.014968 0.000000 
0.913486 0.027256 0.000000 
0.797974 0.126310 0.000000 
0.643930 0.213189 0.000000 
0.356070 0.213189 0.000000 
0.202026 0.126310 0.000000 
0.086514 0.027256 0.000000 
0.037202 -0.014968 0.000000 
0.000000 -0.005000 0.000000 
1.000000 0.005000 0.100000 
0.973716 0.082916 0.100000 
0.899672 0.176556 0.100000 
0.763006 0.283129 0.100000 
0.615441 0.344709 0.100000 
0.384559 0.344709 0.100000 
0.236994 0.283129 0.100000 
0.100328 0.176556 0.100000 
0.026284 0.082916 0.100000 
0.000000 0.005000 0.100000 
1.000000 -0.005000 0.100000 
0.962798 -0.014968 0.100000 
0.913486 0.027256 0.100000 
0.797974 0.126310 0.100000 
0.643930 0.213189 0.100000 
0.356070 0.213189 0.100000 
0.202026 0.126310 0.100000 
0.086514 0.027256 0.100000 
0.037202 -0.014968 0.100000 
0.000000 -0.005000 0.100000 
Zone T="embedding_vol" I=28 J=4 K=4
DATAPACKING=POINT
1.000000 0.005000 0.000000 
0.990850 0.029855 0.000000 
0.980958 0.052616 0.000000 
0.970376 0.073493 0.000000 
0.947360 0.110431 0.000000 
0.922228 0.142344 0.000000 
0.895405 0.170908 0.000000 
0.852785 0.210129 0.000000 
0.807865 0.245173 0.000000 
0.761190 0.275630 0.000000 
0.712765 0.301053 0.000000 
0.660448 0.320863 0.000000 
0.601555 0.334446 0.000000 
0.534880 0.341288 0.000000 
0.465120 0.341288 0.000000 
0.398445 0.334446 0.000000 
0.339552 0.320863 0.000000 
0.287235 0.301053 0.000000 
0.238810 0.275630 0.000000 
0.192135 0.245173 0.000000 
0.147215 0.210129 0.000000 
0.104595 0.170908 0.000000 
0.077772 0.142344 0.000000 
0.052640 0.110431 0.000000 
0.029624 0.073493 0.000000 
0.019042 0.052616 0.000000 
0.009150 0.029855 0.000000 
0.000000 0.005000 0.000000 
1.000000 0.001667 0.000000 
0.989912 0.017501 0.000000 
0.979586 0.032639 0.000000 
0.969004 0.047149 0.000000 
0.946999 0.074572 0.000000 
0.923753 0.100337 0.000000 
0.899124 0.125008 0.000000 
0.859421 0.160740 0.000000 
0.816683 0.194419 0.000000 
0.771310 0.225180 0.000000 
0.723143 0.252080 0.000000 
0.669776 0.273863 0.000000 
0.608246 0.289200 0.000000 
0.537318 0.296979 0.000000 
0.462682 0.296979 0.000000 
0.391754 0.289200 0.000000 
0.330224 0.273863 0.000000 
0.276857 0.252080 0.000000 
0.228690 0.225180 0.000000 
0.183317 0.194419 0.000000 
0.140579 0.160740 0.000000 
0.100876 0.125008 0.000000 
0.076247 0.100337 0.000000 
0.053001 0.074572 0.000000 
0.030996 0.047149 0.000000 
0.020414 0.032639 0.000000 
0.010088 0.017501 0.000000 
0.000000 0.001667 0.000000 
1.000000 -0.001667 0.000000 
0.988975 0.005148 0.000000 
0.978215 0.012661 0.000000 
0.967632 0.020805 0.000000 
0.946637 0.038714 0.000000 
0.925278 0.058330 0.000000 
0.902843 0.079109 0.000000 
0.866057 0.111352 0.000000 
0.825501 0.143665 0.000000 
0.781431 0.174731 0.000000 
0.733520 0.203106 0.000000 
0.679104 0.226864 0.000000 
0.614937 0.243954 0.000000 
0.539756 0.252671 0.000000 
0.460244 0.252671 0.000000 
0.385063 0.243954 0.000000 
0.320896 0.226864 0.000000 
0.266480 0.203106 0.000000 
0.218569 0.174731 0.000000 
0.174499 0.143665 0.000000 
0.133943 0.111352 0.000000 
0.097157 0.079109 0.000000 
0.074722 0.058330 0.000000 
0.053363 0.038714 0.000000 
0.032368 0.020805 0.000000 
0.021785 0.012661 0.000000 
0.011025 0.005148 0.000000 
0.000000 -0.001667 0.000000 
1.000000 -0.005000 0.000000 
0.988037 -0.007206 0.000000 
0.976844 -0.007317 0.000000 
0.966259 -0.005538 0.000000 
0.946275 0.002856 0.000000 
0.926804 0.016324 0.000000 
0.906562 0.033209 0.000000 
0.872693 0.061963 0.000000 
0.834319 0.092912 0.000000 
0.791552 0.124281 0.000000 
0.743897 0.154132 0.000000 
0.688432 0.179864 0.000000 
0.621627 0.198709 0.000000 
0.542195 0.208362 0.000000 
0.457805 0.208362 0.000000 
0.378373 0.198709 0.000000 
0.311568 0.179864 0.000000 
0.256103 0.154132 0.000000 
0.208448 0.124281 0.000000 
0.165681 0.092912 0.000000 
0.127307 0.061963 0.000000 
0.093438 0.033209 0.000000 
0.073196 0.016324 0.000000 
0.053725 0.002856 0.000000 
0.033741 -0.005538 0.000000 
0.023156 -0.007317 0.000000 
0.011963 -0.007206 0.000000 
0.000000 -0.005000 0.000000 
1.000000 0.005000 0.033333 
0.990850 0.029855 0.033333 
0.980958 0.052616 0.033333 
0.970376 0.073493 0.033333 
0.947360 0.110431 0.033333 
0.922228 0.142344 0.033333 
0.895405 0.170908 0.033333 
0.852785 0.210129 0.033333 
0.807865 0.245173 0.033333 
0.761190 0.275630 0.033333 
0.712765 0.301053 0.033333 
0.660448 0.320863 0.033333 
0.601555 0.334446 0.033333 
0.534880 0.341288 0.033333 
0.465120 0.341288 0.033333 
0.398445 0.334446 0.033333 
0.339552 0.320863 0.033333 
0.287235 0.301053 0.033333 
0.238810 0.275630 0.033333 
0.192135 0.245173 0.033333 
0.147215 0.210129 0.033333 
0.104595 0.170908 0.033333 
0.077772 0.142344 0.033333 
0.052640 0.110431 0.033333 
0.029624 0.073493 0.033333 
0.019042 0.052616 0.033333 
0.009150 0.029855 0.033333 
0.000000 0.005000 0.033333 
1.000000 0.001667 0.033333 
0.989912 0.017501 0.033333 
0.979586 0.032639 0.033333 
0.969004 0.047149 0.033333 
0.946999 0.074572 0.033333 
0.923753 0.100337 0.033333 
0.899124 0.125008 0.033333 
0.859421 0.160740 0.033333 
0.816683 0.194419 0.033333 
0.771310 0.225180 0.033333 
0.723143 0.252080 0.033333 
0.669776 0.273863 0.033333 
0.608246 0.289200 0.033333 
0.537318 0.296979 0.033333 
0.462682 0.296979 0.033333 
0.391754 0.289200 0.033333 
0.330224 0.273863 0.033333 
0.276857 0.252080 0.033333 
0.228690 0.225180 0.033333 
0.183317 0.194419 0.033333 
0.140579 0.160740 0.033333 
0.100876 0.125008 0.033333 
0.076247 0.100337 0.033333 
0.053001 0.074572 0.033333 
0.030996 0.047149 0.033333 
0.020414 0.032639 0.033333 
0.010088 0.017501 0.033333 
0.000000 0.001667 0.033333 
1.000000 -0.001667 0.033333 
0.988975 0.005148 0.033333 
0.978215 0.012661 0.033333 
0.967632 0.020805 0.033333 
0.946637 0.038714 0.033333 
0.925278 0.058330 0.033333 
0.902843 0.079109 0.033333 
0.866057 0.111352 0.033333 
0.825501 0.143665 0.033333 
0.781431 0.174731 0.033333 
0.733520 0.203106 0.033333 
0.679104 0.226864 0.033333 
0.614937 0.243954 0.033333 
0.539756 0.252671 0.033333 
0.460244 0.252671 0.033333 
0.385063 0.243954 0.033333 
0.320896 0.226864 0.033333 
0.266480 0.203106 0.033333 
0.218569 0.174731 0.033333 
0.174499 0.143665 0.033333 
0.133943 0.111352 0.033333 
0.097157 0.079109 0.033333 
0.074722 0.058330 0.033333 
0.053363 0.038714 0.033333 
0.032368 0.020805 0.033333 
0.021785 0.012661 0.033333 
0.011025 0.005148 0.033333 
0.000000 -0.001667 0.033333 
1.000000 -0.005000 0.033333 
0.988037 -0.007206 0.033333 
0.976844 -0.007317 0.033333 
0.966259 -0.005538 0.033333 
0.946275 0.002856 0.033333 
0.926804 0.016324 0.033333 
0.906562 0.033209 0.033333 
0.872693 0.061963 0.033333 
0.834319 0.092912 0.033333 
0.791552 0.124281 0.033333 
0.743897 0.154132 0.033333 
0.688432 0.179864 0.033333 
0.621627 0.198709 0.033333 
0.542195 0.208362 0.033333 
0.457805 0.208362 0.033333 
0.378373 0.198709 0.033333 
0.311568 0.179864 0.033333 
0.256103 0.154132 0.033333 
0.208448 0.124281 0.033333 
0.165681 0.092912 0.033333 
0.127307 0.061963 0.033333 
0.093438 0.033209 0.033333 
0.073196 0.016324 0.033333 
0.053725 0.002856 0.033333 
0.033741 -0.005538 0.033333 
0.023156 -0.007317 0.033333 
0.011963 -0.007206 0.033333 
0.000000 -0.005000 0.033333 
1.000000 0.005000 0.066667 
0.990850 0.029855 0.066667 
0.980958 0.052616 0.066667 
0.970376 0.073493 0.066667 
0.947360 0.110431 0.066667 
0.922228 0.142344 0.066667 
0.895405 0.170908 0.066667 
0.852785 0.210129 0.066667 
0.807865 0.245173 0.066667 
0.761190 0.275630 0.066667 
0.712765 0.301053 0.066667 
0.660448 0.320863 0.066667 
0.601555 0.334446 0.066667 
0.534880 0.341288 0.066667 
0.465120 0.341288 0.066667 
0.398445 0.334446 0.066667 
0.339552 0.320863 0.066667 
0.287235 0.301053 0.066667 
0.238810 0.275630 0.066667 
0.192135 0.245173 0.066667 
0.147215 0.210129 0.066667 
0.104595 0.170908 0.066667 
0.077772 0.142344 0.066667 
0.052640 0.110431 0.066667 
0.029624 0.073493 0.066667 
0.019042 0.052616 0.066667 
0.009150 0.029855 0.066667 
0.000000 0.005000 0.066667 
1.000000 0.001667 0.066667 
0.989912 0.017501 0.066667 
0.979586 0.032639 0.066667 
0.969004 0.047149 0.066667 
0.946999 0.074572 0.066667 
0.923753 0.100337 0.066667 
0.899124 0.125008 0.066667 
0.859421 0.160740 0.066667 
0.816683 0.194419 0.066667 
0.771310 0.225180 0.066667 
0.723143 0.252080 0.066667 
0.669776 0.273863 0.066667 
0.608246 0.289200 0.066667 
0.537318 0.296979 0.066667 
0.462682 0.296979 0.066667 
0.391754 0.289200 0.066667 
0.330224 0.273863 0.066667 
0.276857 0.252080 0.066667 
0.228690 0.225180 0.066667 
0.183317 0.194419 0.066667 
0.140579 0.160740 0.066667 
0.100876 0.125008 0.066667 
0.076247 0.100337 0.066667 
0.053001 0.074572 0.066667 
0.030996 0.047149 0.066667 
0.020414 0.032639 0.066667 
0.010088 0.017501 0.066667 
0.000000 0.001667 0.066667 
1.000000 -0.001667 0.066667 
0.988975 0.005148 0.066667 
0.978215 0.012661 0.066667 
0.967632 0.020805 0.066667 
0.946637 0.038714 0.066667 
0.925278 0.058330 0.066667 
0.902843 0.079109 0.066667 
0.866057 0.111352 0.066667 
0.825501 0.143665 0.066667 
0.781431 0.174731 0.066667 
0.733520 0.203106 0.066667 
0.679104 0.226864 0.066667 
0.614937 0.243954 0.066667 
0.539756 0.252671 0.066667 
0.460244 0.252671 0.066667 
0.385063 0.243954 0.066667 
0.320896 0.226864 0.066667 
0.266480 0.203106 0.066667 
0.218569 0.174731 0.066667 
0.174499 0.143665 0.066667 
0.133943 0.111352 0.066667 
0.097157 0.079109 0.066667 
0.074722 0.058330 0.066667 
0.053363 0.038714 0.066667 
0.032368 0.020805 0.066667 
0.021785 0.012661 0.066667 
0.011025 0.005148 0.066667 
0.000000 -0.001667 0.066667 
1.000000 -0.005000 0.066667 
0.988037 -0.007206 0.066667 
0.976844 -0.007317 0.066667 
0.966259 -0.005538 0.066667 
0.946275 0.002856 0.066667 
0.926804 0.016324 0.066667 
0.906562 0.033209 0.066667 
0.872693 0.061963 0.066667 
0.834319 0.092912 0.066667 
0.791552 0.124281 0.066667 
0.743897 0.154132 0.066667 
0.688432 0.179864 0.066667 
0.621627 0.198709 0.066667 
0.542195 0.208362 0.066667 
0.457805 0.208362 0.066667 
0.378373 0.198709 0.066667 
0.311568 0.179864 0.066667 
0.256103 0.154132 0.066667 
0.208448 0.124281 0.066667 
0.165681 0.092912 0.066667 
0.127307 0.061963 0.066667 
0.093438 0.033209 0.066667 
0.073196 0.016324 0.066667 
0.053725 0.002856 0.066667 
0.033741 -0.005538 0.066667 
0.023156 -0.007317 0.066667 
0.011963 -0.007206 0.066667 
0.000000 -0.005000 0.066667 
1.000000 0.005000 0.100000 
0.990850 0.029855 0.100000 
0.980958 0.052616 0.100000 
0.970376 0.073493 0.100000 
0.947360 0.110431 0.100000 
0.922228 0.142344 0.100000 
0.895405 0.170908 0.100000 
0.852785 0.210129 0.100000 
0.807865 0.245173 0.100000 
0.761190 0.275630 0.100000 
0.712765 0.301053 0.100000 
0.660448 0.320863 0.100000 
0.601555 0.334446 0.100000 
0.534880 0.341288 0.100000 
0.465120 0.341288 0.100000 
0.398445 0.334446 0.100000 
0.339552 0.320863 0.100000 
0.287235 0.301053 0.100000 
0.238810 0.275630 0.100000 
0.192135 0.245173 0.100000 
0.147215 0.210129 0.100000 
0.104595 0.170908 0.100000 
0.077772 0.142344 0.100000 
0.052640 0.110431 0.100000 
0.029624 0.073493 0.100000 
0.019042 0.052616 0.100000 
0.009150 0.029855 0.100000 
0.000000 0.005000 0.100000 
1.000000 0.001667 0.100000 
0.989912 0.017501 0.100000 
0.979586 0.032639 0.100000 
0.969004 0.047149 0.100000 
0.946999 0.074572 0.100000 
0.923753 0.100337 0.100000 
0.899124 0.125008 0.100000 
0.859421 0.160740 0.100000 
0.816683 0.194419 0.100000 
0.771310 0.225180 0.100000 
0.723143 0.252080 0.100000 
0.669776 0.273863 0.100000 
0.608246 0.289200 0.100000 
0.537318 0.296979 0.100000 
0.462682 0.296979 0.100000 
0.391754 0.289200 0.100000 
0.330224 0.273863 0.100000 
0.276857 0.252080 0.100000 
0.228690 0.225180 0.100000 
0.183317 0.194419 0.100000 
0.140579 0.160740 0.100000 
0.100876 0.125008 0.100000 
0.076247 0.100337 0.100000 
0.053001 0.074572 0.100000 
0.030996 0.047149 0.100000 
0.020414 0.032639 0.100000 
0.010088 0.017501 0.100000 
0.000000 0.001667 0.100000 
1.000000 -0.001667 0.100000 
0.988975 0.005148 0.100000 
0.978215 0.012661 0.100000 
0.967632 0.020805 0.100000 
0.946637 0.038714 0.100000 
0.925278 0.058330 0.100000 
0.902843 0.079109 0.100000 
0.866057 0.111352 0.100000 
0.825501 0.143665 0.100000 
0.781431 0.174731 0.100000 
0.733520 0.203106 0.100000 
0.679104 0.226864 0.100000 
0.614937 0.243954 0.100000 
0.539756 0.252671 0.100000 
0.460244 0.252671 0.100000 
0.385063 0.243954 0.100000 
0.320896 0.226864 0.100000 
0.266480 0.203106 0.100000 
0.218569 0.174731 0.100000 
0.174499 0.143665 0.100000 
0.133943 0.111352 0.100000 
0.097157 0.079109 0.100000 
0.074722 0.058330 0.100000 
0.053363 0.038714 0.100000 
0.032368 0.020805 0.100000 
0.021785 0.012661 0.100000 
0.011025 0.005148 0.100000 
0.000000 -0.001667 0.100000 
1.000000 -0.005000 0.100000 
0.988037 -0.007206 0.100000 
0.976844 -0.007317 0.100000 
0.966259 -0.005538 0.100000 
0.946275 0.002856 0.100000 
0.926804 0.016324 0.100000 
0.906562 0.033209 0.100000 
0.872693 0.061963 0.100000 
0.834319 0.092912 0.100000 
0.791552 0.124281 0.100000 
0.743897 0.154132 0.100000 
0.688432 0.179864 0.100000 
0.621627 0.198709 0.100000 
0.542195 0.208362 0.100000 
0.457805 0.208362 0.100000 
0.378373 0.198709 0.100000 
0.311568 0.179864 0.100000 
0.256103 0.154132 0.100000 
0.208448 0.124281 0.100000 
0.165681 0.092912 0.100000 
0.127307 0.061963 0.100000 
0.093438 0.033209 0.100000 
0.073196 0.016324 0.100000 
0.053725 0.002856 0.100000 
0.033741 -0.005538 0.100000 
0.023156 -0.007317 0.100000 
0.011963 -0.007206 0.100000 
0.000000 -0.005000 0.100000 
Zone T="FFD_vol1" I=10 J=2 K=2
DATAPACKING=POINT
1.987870 -0.331564 0.000000 
1.924983 -0.277492 0.000000 
1.831272 -0.206581 0.000000 
1.731336 -0.142959 0.000000 
1.626155 -0.088507 0.000000 
1.516265 -0.044422 0.000000 
1.402457 -0.012842 0.000000 
1.285016 -0.004293 0.000000 
1.168046 -0.018737 0.000000 
1.021294 -0.075170 0.000000 
1.983987 -0.346054 0.000000 
1.920036 -0.293267 0.000000 
1.824599 -0.224743 0.000000 
1.722858 -0.164078 0.000000 
1.616057 -0.112872 0.000000 
1.504942 -0.071908 0.000000 
1.390387 -0.043103 0.000000 
1.272760 -0.036884 0.000000 
1.155936 -0.052790 0.000000 
1.018706 -0.084830 0.000000 
1.987870 -0.331564 0.100000 
1.924983 -0.277492 0.100000 
1.831272 -0.206581 0.100000 
1.731336 -0.142959 0.100000 
1.626155 -0.088507 0.100000 
1.516265 -0.044422 0.100000 
1.402457 -0.012842 0.100000 
1.285016 -0.004293 0.100000 
1.168046 -0.018737 0.100000 
1.021294 -0.075170 0.100000 
1.983987 -0.346054 0.100000 
1.920036 -0.293267 0.100000 
1.824599 -0.224743 0.100000 
1.722858 -0.164078 0.100000 
1.616057 -0.112872 0.100000 
1.504942 -0.071908 0.100000 
1.390387 -0.043103 0.100000 
1.272760 -0.036884 0.100000 
1.155936 -0.052790 0.100000 
1.018706 -0.084830 0.100000 
Zone T="embedding_vol" I=28 J=4 K=4
DATAPACKING=POINT
1.987870 -0.331564 0.000000 
1.967489 -0.314214 0.000000 
1.948219 -0.298148 0.000000 
1.929984 -0.283272 0.000000 
1.896315 -0.256711 0.000000 
1.865871 -0.233774 0.000000 
1.838044 -0.213705 0.000000 
1.799934 -0.187541 0.000000 
1.764640 -0.164883 0.000000 
1.730462 -0.144487 0.000000 
1.695988 -0.125325 0.000000 
1.660951 -0.107226 0.000000 
1.625371 -0.090235 0.000000 
1.589269 -0.074401 0.000000 
1.552673 -0.059799 0.000000 
1.515612 -0.046506 0.000000 
1.478113 -0.034655 0.000000 
1.440190 -0.024584 0.000000 
1.401852 -0.016681 0.000000 
1.362773 -0.011316 0.000000 
1.321276 -0.008777 0.000000 
1.275347 -0.009329 0.000000 
1.240508 -0.012017 0.000000 
1.197629 -0.019106 0.000000 
1.141535 -0.033505 0.000000 
1.106915 -0.044354 0.000000 
1.067050 -0.058121 0.000000 
1.021294 -0.075170 0.000000 
1.986576 -0.336394 0.000000 
1.966079 -0.319185 0.000000 
1.946698 -0.303259 0.000000 
1.928356 -0.288520 0.000000 
1.894487 -0.262226 0.000000 
1.863860 -0.239546 0.000000 
1.835863 -0.219724 0.000000 
1.797523 -0.193914 0.000000 
1.762019 -0.171597 0.000000 
1.727646 -0.151543 0.000000 
1.692986 -0.132730 0.000000 
1.657772 -0.114985 0.000000 
1.622026 -0.098349 0.000000 
1.585774 -0.082867 0.000000 
1.549043 -0.068608 0.000000 
1.511864 -0.055649 0.000000 
1.474265 -0.044119 0.000000 
1.436260 -0.034354 0.000000 
1.397860 -0.026743 0.000000 
1.358739 -0.021655 0.000000 
1.317219 -0.019379 0.000000 
1.271284 -0.020185 0.000000 
1.236484 -0.022948 0.000000 
1.193856 -0.029558 0.000000 
1.138432 -0.042374 0.000000 
1.104368 -0.051846 0.000000 
1.065242 -0.063753 0.000000 
1.020431 -0.078390 0.000000 
1.985281 -0.341224 0.000000 
1.964669 -0.324157 0.000000 
1.945177 -0.308370 0.000000 
1.926729 -0.293768 0.000000 
1.892660 -0.267741 0.000000 
1.861848 -0.245318 0.000000 
1.833682 -0.225744 0.000000 
1.795111 -0.200287 0.000000 
1.759398 -0.178312 0.000000 
1.724830 -0.158599 0.000000 
1.689983 -0.140135 0.000000 
1.654592 -0.122745 0.000000 
1.618682 -0.106464 0.000000 
1.582279 -0.091332 0.000000 
1.545414 -0.077417 0.000000 
1.508117 -0.064792 0.000000 
1.470417 -0.053583 0.000000 
1.432329 -0.044125 0.000000 
1.393867 -0.036805 0.000000 
1.354705 -0.031993 0.000000 
1.313162 -0.029980 0.000000 
1.267221 -0.031041 0.000000 
1.232460 -0.033878 0.000000 
1.190084 -0.040010 0.000000 
1.135329 -0.051243 0.000000 
1.101822 -0.059337 0.000000 
1.063433 -0.069384 0.000000 
1.019569 -0.081610 0.000000 
1.983987 -0.346054 0.000000 
1.963259 -0.329129 0.000000 
1.943656 -0.313481 0.000000 
1.925101 -0.299016 0.000000 
1.890832 -0.273255 0.000000 
1.859837 -0.251090 0.000000 
1.831501 -0.231763 0.000000 
1.792699 -0.206660 0.000000 
1.756777 -0.185027 0.000000 
1.722015 -0.165655 0.000000 
1.686981 -0.147540 0.000000 
1.651413 -0.130505 0.000000 
1.615338 -0.114579 0.000000 
1.578785 -0.099798 0.000000 
1.541784 -0.086226 0.000000 
1.504369 -0.073934 0.000000 
1.466568 -0.063046 0.000000 
1.428399 -0.053895 0.000000 
1.389875 -0.046867 0.000000 
1.350671 -0.042331 0.000000 
1.309105 -0.040582 0.000000 
1.263158 -0.041897 0.000000 
1.228436 -0.044809 0.000000 
1.186311 -0.050462 0.000000 
1.132227 -0.060113 0.000000 
1.099275 -0.066829 0.000000 
1.061625 -0.075016 0.000000 
1.018706 -0.084830 0.000000 
1.987870 -0.331564 0.033333 
1.967489 -0.314214 0.033333 
1.948219 -0.298148 0.033333 
1.929984 -0.283272 0.033333 
1.896315 -0.256711 0.033333 
1.865871 -0.233774 0.033333 
1.838044 -0.213705 0.033333 
1.799934 -0.187541 0.033333 
1.764640 -0.164883 0.033333 
1.730462 -0.144487 0.033333 
1.695988 -0.125325 0.033333 
1.660951 -0.107226 0.033333 
1.625371 -0.090235 0.033333 
1.589269 -0.074401 0.033333 
1.552673 -0.059799 0.033333 
1.515612 -0.046506 0.033333 
1.478113 -0.034655 0.033333 
1.440190 -0.024584 0.033333 
1.401852 -0.016681 0.033333 
1.362773 -0.011316 0.033333 
1.321276 -0.008777 0.033333 
1.275347 -0.009329 0.033333 
1.240508 -0.012017 0.033333 
1.197629 -0.019106 0.033333 
1.141535 -0.033505 0.033333 
1.106915 -0.044354 0.033333 
1.067050 -0.058121 0.033333 
1.021294 -0.075170 0.033333 
1.986576 -0.336394 0.033333 
1.966079 -0.319185 0.033333 
1.946698 -0.303259 0.033333 
1.928356 -0.288520 0.033333 
1.894487 -0.262226 0.033333 
1.863860 -0.239546 0.033333 
1.835863 -0.219724 0.033333 
1.797523 -0.193914 0.033333 
1.762019 -0.171597 0.033333 
1.727646 -0.151543 0.033333 
1.692986 -0.132730 0.033333 
1.657772 -0.114985 0.033333 
1.622026 -0.098349 0.033333 
1.585774 -0.082867 0.033333 
1.549043 -0.068608 0.033333 
1.511864 -0.055649 0.033333 
1.474265 -0.044119 0.033333 
1.436260 -0.034354 0.033333 
1.397860 -0.026743 0.033333 
1.358739 -0.021655 0.033333 
1.317219 -0.019379 0.033333 
1.271284 -0.020185 0.033333 
1.236484 -0.022948 0.033333 
1.193856 -0.029558 0.033333 
1.138432 -0.042374 0.033333 
1.104368 -0.051846 0.033333 
1.065242 -0.063753 0.033333 
1.020431 -0.078390 0.033333 
1.985281 -0.341224 0.033333 
1.964669 -0.324157 0.033333 
1.945177 -0.308370 0.033333 
1.926729 -0.293768 0.033333 
1.892660 -0.267741 0.033333 
1.861848 -0.245318 0.033333 
1.833682 -0.225744 0.033333 
1.795111 -0.200287 0.033333 
1.759398 -0.178312 0.033333 
1.724830 -0.158599 0.033333 
1.689983 -0.140135 0.033333 
1.654592 -0.122745 0.033333 
1.618682 -0.106464 0.033333 
1.582279 -0.091332 0.033333 
1.545414 -0.077417 0.033333 
1.508117 -0.064792 0.033333 
1.470417 -0.053583 0.033333 
1.432329 -0.044125 0.033333 
1.393867 -0.036805 0.033333 
1.354705 -0.031993 0.033333 
1.313162 -0.029980 0.033333 
1.267221 -0.031041 0.033333 
1.232460 -0.033878 0.033333 
1.190084 -0.040010 0.033333 
1.135329 -0.051243 0.033333 
1.101822 -0.059337 0.033333 
1.063433 -0.069384 0.033333 
1.019569 -0.081610 0.033333 
1.983987 -0.346054 0.033333 
1.963259 -0.329129 0.033333 
1.943656 -0.313481 0.033333 
1.925101 -0.299016 0.033333 
1.890832 -0.273255 0.033333 
1.859837 -0.251090 0.033333 
1.831501 -0.231763 0.033333 
1.792699 -0.206660 0.033333 
1.756777 -0.185027 0.033333 
1.722015 -0.165655 0.033333 
1.686981 -0.147540 0.033333 
1.651413 -0.130505 0.033333 
1.615338 -0.114579 0.033333 
1.578785 -0.099798 0.033333 
1.541784 -0.086226 0.033333 
1.504369 -0.073934 0.033333 
1.466568 -0.063046 0.033333 
1.428399 -0.053895 0.033333 
1.389875 -0.046867 0.033333 
1.350671 -0.042331 0.033333 
1.309105 -0.040582 0.033333 
1.263158 -0.041897 0.033333 
1.228436 -0.044809 0.033333 
1.186311 -0.050462 0.033333 
1.132227 -0.060113 0.033333 
1.099275 -0.066829 0.033333 
1.061625 -0.075016 0.033333 
1.018706 -0.084830 0.033333 
1.987870 -0.331564 0.066667 
1.967489 -0.314214 0.066667 
1.948219 -0.298148 0.066667 
1.929984 -0.283272 0.066667 
1.896315 -0.256711 0.066667 
1.865871 -0.233774 0.066667 
1.838044 -0.213705 0.066667 
1.799934 -0.187541 0.066667 
1.764640 -0.164883 0.066667 
1.730462 -0.144487 0.066667 
1.695988 -0.125325 0.066667 
1.660951 -0.107226 0.066667 
1.625371 -0.090235 0.066667 
1.589269 -0.074401 0.066667 
1.552673 -0.059799 0.066667 
1.515612 -0.046506 0.066667 
1.478113 -0.034655 0.066667 
1.440190 -0.024584 0.066667 
1.401852 -0.016681 0.066667 
1.362773 -0.011316 0.066667 
1.321276 -0.008777 0.066667 
1.275347 -0.009329 0.066667 
1.240508 -0.012017 0.066667 
1.197629 -0.019106 0.066667 
1.141535 -0.033505 0.066667 
1.106915 -0.044354 0.066667 
1.067050 -0.058121 0.066667 
1.021294 -0.075170 0.066667 
1.986576 -0.336394 0.066667 
1.966079 -0.319185 0.066667 
1.946698 -0.303259 0.066667 
1.928356 -0.288520 0.066667 
1.894487 -0.262226 0.066667 
1.863860 -0.239546 0.066667 
1.835863 -0.219724 0.066667 
1.797523 -0.193914 0.066667 
1.762019 -0.171597 0.066667 
1.727646 -0.151543 0.066667 
1.692986 -0.132730 0.066667 
1.657772 -0.114985 0.066667 
1.622026 -0.098349 0.066667 
1.585774 -0.082867 0.066667 
1.549043 -0.068608 0.066667 
1.511864 -0.055649 0.066667 
1.474265 -0.044119 0.066667 
1.436260 -0.034354 0.066667 
1.397860 -0.026743 0.066667 
1.358739 -0.021655 0.066667 
1.317219 -0.019379 0.066667 
1.271284 -0.020185 0.066667 
1.236484 -0.022948 0.066667 
1.193856 -0.029558 0.066667 
1.138432 -0.042374 0.066667 
1.104368 -0.051846 0.066667 
1.065242 -0.063753 0.066667 
1.020431 -0.078390 0.066667 
1.985281 -0.341224 0.066667 
1.964669 -0.324157 0.066667 
1.945177 -0.308370 0.066667 
1.926729 -0.293768 0.066667 
1.892660 -0.267741 0.066667 
1.861848 -0.245318 0.066667 
1.833682 -0.225744 0.066667 
1.795111 -0.200287 0.066667 
1.759398 -0.178312 0.066667 
1.724830 -0.158599 0.066667 
1.689983 -0.140135 0.066667 
1.654592 -0.122745 0.066667 
1.618682 -0.106464 0.066667 
1.582279 -0.091332 0.066667 
1.545414 -0.077417 0.066667 
1.508117 -0.064792 0.066667 
1.470417 -0.053583 0.066667 
1.432329 -0.044125 0.066667 
1.393867 -0.036805 0.066667 
1.354705 -0.031993 0.066667 
1.313162 -0.029980 0.066667 
1.267221 -0.031041 0.066667 
1.232460 -0.033878 0.066667 
1.190084 -0.040010 0.066667 
1.135329 -0.051243 0.066667 
1.101822 -0.059337 0.066667 
1.063433 -0.069384 0.066667 
1.019569 -0.081610 0.066667 
1.983987 -0.346054 0.066667 
1.963259 -0.329129 0.066667 
1.943656 -0.313481 0.066667 
1.925101 -0.299016 0.066667 
1.890832 -0.273255 0.066667 
1.859837 -0.251090 0.066667 
1.831501 -0.231763 0.066667 
1.792699 -0.206660 0.066667 
1.756777 -0.185027 0.066667 
1.722015 -0.165655 0.066667 
1.686981 -0.147540 0.066667 
1.651413 -0.130505 0.066667 
1.615338 -0.114579 0.066667 
1.578785 -0.099798 0.066667 
1.541784 -0.086226 0.066667 
1.504369 -0.073934 0.066667 
1.466568 -0.063046 0.066667 
1.428399 -0.053895 0.066667 
1.389875 -0.046867 0.066667 
1.350671 -0.042331 0.066667 
1.309105 -0.040582 0.066667 
1.263158 -0.041897 0.066667 
1.228436 -0.044809 0.066667 
1.186311 -0.050462 0.066667 
1.132227 -0.060113 0.066667 
1.099275 -0.066829 0.066667 
1.061625 -0.075016 0.066667 
1.018706 -0.084830 0.066667 
1.987870 -0.331564 0.100000 
1.967489 -0.314214 0.100000 
1.948219 -0.298148 0.100000 
1.929984 -0.283272 0.100000 
1.896315 -0.256711 0.100000 
1.865871 -0.233774 0.100000 
1.838044 -0.213705 0.100000 
1.799934 -0.187541 0.100000 
1.764640 -0.164883 0.100000 
1.730462 -0.144487 0.100000 
1.695988 -0.125325 0.100000 
1.660951 -0.107226 0.100000 
1.625371 -0.090235 0.100000 
1.589269 -0.074401 0.100000 
1.552673 -0.059799 0.100000 
1.515612 -0.046506 0.100000 
1.478113 -0.034655 0.100000 
1.440190 -0.024584 0.100000 
1.401852 -0.016681 0.100000 
1.362773 -0.011316 0.100000 
1.321276 -0.008777 0.100000 
1.275347 -0.009329 0.100000 
1.240508 -0.012017 0.100000 
1.197629 -0.019106 0.100000 
1.141535 -0.033505 0.100000 
1.106915 -0.044354 0.100000 
1.067050 -0.058121 0.100000 
1.021294 -0.075170 0.100000 
1.986576 -0.336394 0.100000 
1.966079 -0.319185 0.100000 
1.946698 -0.303259 0.100000 
1.928356 -0.288520 0.100000 
1.894487 -0.262226 0.100000 
1.863860 -0.239546 0.100000 
1.835863 -0.219724 0.100000 
1.797523 -0.193914 0.100000 
1.762019 -0.171597 0.100000 
1.727646 -0.151543 0.100000 
1.692986 -0.132730 0.100000 
1.657772 -0.114985 0.100000 
1.622026 -0.098349 0.100000 
1.585774 -0.082867 0.100000 
1.549043 -0.068608 0.100000 
1.511864 -0.055649 0.100000 
1.474265 -0.044119 0.100000 
1.436260 -0.034354 0.100000 
1.397860 -0.026743 0.100000 
1.358739 -0.021655 0.100000 
1.317219 -0.019379 0.100000 
1.271284 -0.020185 0.100000 
1.236484 -0.022948 0.100000 
1.193856 -0.029558 0.100000 
1.138432 -0.042374 0.100000 
1.104368 -0.051846 0.100000 
1.065242 -0.063753 0.100000 
1.020431 -0.078390 0.100000 
1.985281 -0.341224 0.100000 
1.964669 -0.324157 0.100000 
1.945177 -0.308370 0.100000 
1.926729 -0.293768 0.100000 
1.892660 -0.267741 0.100000 
1.861848 -0.245318 0.100000 
1.833682 -0.225744 0.100000 
1.795111 -0.200287 0.100000 
1.759398 -0.178312 0.100000 
1.724830 -0.158599 0.100000 
1.689983 -0.140135 0.100000 
1.654592 -0.122745 0.100000 
1.618682 -0.106464 0.100000 
1.582279 -0.091332 0.100000 
1.545414 -0.077417 0.100000 
1.508117 -0.064792 0.100000 
1.470417 -0.053583 0.100000 
1.432329 -0.044125 0.100000 
1.393867 -0.036805 0.100000 
1.354705 -0.031993 0.100000 
1.313162 -0.029980 0.100000 
1.267221 -0.031041 0.100000 
1.232460 -0.033878 0.100000 
1.190084 -0.040010 0.100000 
1.135329 -0.051243 0.100000 
1.101822 -0.059337 0.100000 
1.063433 -0.069384 0.100000 
1.019569 -0.081610 0.100000 
1.983987 -0.346054 0.100000 
1.963259 -0.329129 0.100000 
1.943656 -0.313481 0.100000 
1.925101 -0.299016 0.100000 
1.890832 -0.273255 0.100000 
1.859837 -0.251090 0.100000 
1.831501 -0.231763 0.100000 
1.792699 -0.206660 0.100000 
1.756777 -0.185027 0.100000 
1.722015 -0.165655 0.100000 
1.686981 -0.147540 0.100000 
1.651413 -0.130505 0.100000 
1.615338 -0.114579 0.100000 
1.578785 -0.099798 0.100000 
1.541784 -0.086226 0.100000 
1.504369 -0.073934 0.100000 
1.466568 -0.063046 0.100000 
1.428399 -0.053895 0.100000 
1.389875 -0.046867 0.100000 
1.350671 -0.042331 0.100000 
1.309105 -0.040582 0.100000 
1.263158 -0.041897 0.100000 
1.228436 -0.044809 0.100000 
1.186311 -0.050462 0.100000 
1.132227 -0.060113 0.100000 
1.099275 -0.066829 0.100000 
1.061625 -0.075016 0.100000 
1.018706 -0.084830 0.100000 
