VARIABLES = "CoordinateX", "CoordinateY", "CoordinateZ"
Zone T="FFD_vol0" I=5 J=2 K=2
DATAPACKING=POINT
0.994482 -0.018062 0.000000 
0.747087 0.016555 0.000000 
0.402418 0.037661 0.000000 
0.115704 -0.002586 0.000000 
-0.010772 -0.043055 0.000000 
1.008351 0.039548 0.000000 
0.762756 0.094389 0.000000 
0.410492 0.139750 0.000000 
0.102934 0.088247 0.000000 
-0.013924 0.029255 0.000000 
0.994482 -0.018062 1.000000 
0.747087 0.016555 1.000000 
0.402418 0.037661 1.000000 
0.115704 -0.002586 1.000000 
-0.010772 -0.043055 1.000000 
1.008351 0.039548 1.000000 
0.762756 0.094389 1.000000 
0.410492 0.139750 1.000000 
0.102934 0.088247 1.000000 
-0.013924 0.029255 1.000000 
Zone T="embedding_vol" I=13 J=4 K=4
DATAPACKING=POINT
0.994482 -0.018062 0.000000 
0.914714 -0.007402 0.000000 
0.840007 0.001547 0.000000 
0.769864 0.008857 0.000000 
0.641271 0.018848 0.000000 
0.524948 0.023145 0.000000 
0.416907 0.022323 0.000000 
0.313849 0.016806 0.000000 
0.215242 0.006414 0.000000 
0.121242 -0.009182 0.000000 
0.076020 -0.019035 0.000000 
0.032008 -0.030312 0.000000 
-0.010772 -0.043055 0.000000 
0.999105 0.001141 0.000000 
0.919469 0.013948 0.000000 
0.844762 0.024842 0.000000 
0.774493 0.033892 0.000000 
0.645297 0.046743 0.000000 
0.527944 0.053058 0.000000 
0.418494 0.053393 0.000000 
0.313778 0.048145 0.000000 
0.213698 0.037057 0.000000 
0.118924 0.019712 0.000000 
0.073736 0.008563 0.000000 
0.030126 -0.004308 0.000000 
-0.011823 -0.018952 0.000000 
1.003728 0.020345 0.000000 
0.924224 0.035298 0.000000 
0.849517 0.048137 0.000000 
0.779122 0.058928 0.000000 
0.649323 0.074639 0.000000 
0.530939 0.082970 0.000000 
0.420081 0.084464 0.000000 
0.313707 0.079484 0.000000 
0.212155 0.067701 0.000000 
0.116606 0.048607 0.000000 
0.071453 0.036160 0.000000 
0.028244 0.021696 0.000000 
-0.012873 0.005152 0.000000 
1.008351 0.039548 0.000000 
0.928979 0.056648 0.000000 
0.854272 0.071431 0.000000 
0.783752 0.083963 0.000000 
0.653349 0.102534 0.000000 
0.533934 0.112883 0.000000 
0.421669 0.115534 0.000000 
0.313637 0.110824 0.000000 
0.210611 0.098344 0.000000 
0.114288 0.077501 0.000000 
0.069169 0.063757 0.000000 
0.026361 0.047700 0.000000 
-0.013924 0.029255 0.000000 
0.994482 -0.018062 0.333333 
0.914714 -0.007402 0.333333 
0.840007 0.001547 0.333333 
0.769864 0.008857 0.333333 
0.641271 0.018848 0.333333 
0.524948 0.023145 0.333333 
0.416907 0.022323 0.333333 
0.313849 0.016806 0.333333 
0.215242 0.006414 0.333333 
0.121242 -0.009182 0.333333 
0.076020 -0.019035 0.333333 
0.032008 -0.030312 0.333333 
-0.010772 -0.043055 0.333333 
0.999105 0.001141 0.333333 
0.919469 0.013948 0.333333 
0.844762 0.024842 0.333333 
0.774493 0.033892 0.333333 
0.645297 0.046743 0.333333 
0.527944 0.053058 0.333333 
0.418494 0.053393 0.333333 
0.313778 0.048145 0.333333 
0.213698 0.037057 0.333333 
0.118924 0.019712 0.333333 
0.073736 0.008563 0.333333 
0.030126 -0.004308 0.333333 
-0.011823 -0.018952 0.333333 
1.003728 0.020345 0.333333 
0.924224 0.035298 0.333333 
0.849517 0.048137 0.333333 
0.779122 0.058928 0.333333 
0.649323 0.074639 0.333333 
0.530939 0.082970 0.333333 
0.420081 0.084464 0.333333 
0.313707 0.079484 0.333333 
0.212155 0.067701 0.333333 
0.116606 0.048607 0.333333 
0.071453 0.036160 0.333333 
0.028244 0.021696 0.333333 
-0.012873 0.005152 0.333333 
1.008351 0.039548 0.333333 
0.928979 0.056648 0.333333 
0.854272 0.071431 0.333333 
0.783752 0.083963 0.333333 
0.653349 0.102534 0.333333 
0.533934 0.112883 0.333333 
0.421669 0.115534 0.333333 
0.313637 0.110824 0.333333 
0.210611 0.098344 0.333333 
0.114288 0.077501 0.333333 
0.069169 0.063757 0.333333 
0.026361 0.047700 0.333333 
-0.013924 0.029255 0.333333 
0.994482 -0.018062 0.666667 
0.914714 -0.007402 0.666667 
0.840007 0.001547 0.666667 
0.769864 0.008857 0.666667 
0.641271 0.018848 0.666667 
0.524948 0.023145 0.666667 
0.416907 0.022323 0.666667 
0.313849 0.016806 0.666667 
0.215242 0.006414 0.666667 
0.121242 -0.009182 0.666667 
0.076020 -0.019035 0.666667 
0.032008 -0.030312 0.666667 
-0.010772 -0.043055 0.666667 
0.999105 0.001141 0.666667 
0.919469 0.013948 0.666667 
0.844762 0.024842 0.666667 
0.774493 0.033892 0.666667 
0.645297 0.046743 0.666667 
0.527944 0.053058 0.666667 
0.418494 0.053393 0.666667 
0.313778 0.048145 0.666667 
0.213698 0.037057 0.666667 
0.118924 0.019712 0.666667 
0.073736 0.008563 0.666667 
0.030126 -0.004308 0.666667 
-0.011823 -0.018952 0.666667 
1.003728 0.020345 0.666667 
0.924224 0.035298 0.666667 
0.849517 0.048137 0.666667 
0.779122 0.058928 0.666667 
0.649323 0.074639 0.666667 
0.530939 0.082970 0.666667 
0.420081 0.084464 0.666667 
0.313707 0.079484 0.666667 
0.212155 0.067701 0.666667 
0.116606 0.048607 0.666667 
0.071453 0.036160 0.666667 
0.028244 0.021696 0.666667 
-0.012873 0.005152 0.666667 
1.008351 0.039548 0.666667 
0.928979 0.056648 0.666667 
0.854272 0.071431 0.666667 
0.783752 0.083963 0.666667 
0.653349 0.102534 0.666667 
0.533934 0.112883 0.666667 
0.421669 0.115534 0.666667 
0.313637 0.110824 0.666667 
0.210611 0.098344 0.666667 
0.114288 0.077501 0.666667 
0.069169 0.063757 0.666667 
0.026361 0.047700 0.666667 
-0.013924 0.029255 0.666667 
0.994482 -0.018062 1.000000 
0.914714 -0.007402 1.000000 
0.840007 0.001547 1.000000 
0.769864 0.008857 1.000000 
0.641271 0.018848 1.000000 
0.524948 0.023145 1.000000 
0.416907 0.022323 1.000000 
0.313849 0.016806 1.000000 
0.215242 0.006414 1.000000 
0.121242 -0.009182 1.000000 
0.076020 -0.019035 1.000000 
0.032008 -0.030312 1.000000 
-0.010772 -0.043055 1.000000 
0.999105 0.001141 1.000000 
0.919469 0.013948 1.000000 
0.844762 0.024842 1.000000 
0.774493 0.033892 1.000000 
0.645297 0.046743 1.000000 
0.527944 0.053058 1.000000 
0.418494 0.053393 1.000000 
0.313778 0.048145 1.000000 
0.213698 0.037057 1.000000 
0.118924 0.019712 1.000000 
0.073736 0.008563 1.000000 
0.030126 -0.004308 1.000000 
-0.011823 -0.018952 1.000000 
1.003728 0.020345 1.000000 
0.924224 0.035298 1.000000 
0.849517 0.048137 1.000000 
0.779122 0.058928 1.000000 
0.649323 0.074639 1.000000 
0.530939 0.082970 1.000000 
0.420081 0.084464 1.000000 
0.313707 0.079484 1.000000 
0.212155 0.067701 1.000000 
0.116606 0.048607 1.000000 
0.071453 0.036160 1.000000 
0.028244 0.021696 1.000000 
-0.012873 0.005152 1.000000 
1.008351 0.039548 1.000000 
0.928979 0.056648 1.000000 
0.854272 0.071431 1.000000 
0.783752 0.083963 1.000000 
0.653349 0.102534 1.000000 
0.533934 0.112883 1.000000 
0.421669 0.115534 1.000000 
0.313637 0.110824 1.000000 
0.210611 0.098344 1.000000 
0.114288 0.077501 1.000000 
0.069169 0.063757 1.000000 
0.026361 0.047700 1.000000 
-0.013924 0.029255 1.000000 
Zone T="FFD_vol1" I=5 J=2 K=2
DATAPACKING=POINT
-0.040582 0.042033 0.000000 
-0.159281 0.010701 0.000000 
-0.313188 -0.069600 0.000000 
-0.426961 -0.160264 0.000000 
-0.474263 -0.205181 0.000000 
-0.051652 0.067380 0.000000 
-0.175793 0.045994 0.000000 
-0.339465 -0.027006 0.000000 
-0.459454 -0.127704 0.000000 
-0.494894 -0.179963 0.000000 
-0.040582 0.042033 1.000000 
-0.159281 0.010701 1.000000 
-0.313188 -0.069600 1.000000 
-0.426961 -0.160264 1.000000 
-0.474263 -0.205181 1.000000 
-0.051652 0.067380 1.000000 
-0.175793 0.045994 1.000000 
-0.339465 -0.027006 1.000000 
-0.459454 -0.127704 1.000000 
-0.494894 -0.179963 1.000000 
Zone T="embedding_vol" I=13 J=4 K=4
DATAPACKING=POINT
-0.040582 0.042033 0.000000 
-0.078646 0.031271 0.000000 
-0.113878 0.019907 0.000000 
-0.146540 0.007992 0.000000 
-0.205198 -0.017284 0.000000 
-0.256707 -0.044149 0.000000 
-0.303155 -0.072191 0.000000 
-0.346286 -0.101036 0.000000 
-0.386475 -0.130451 0.000000 
-0.423750 -0.160237 0.000000 
-0.441303 -0.175208 0.000000 
-0.458140 -0.190197 0.000000 
-0.474263 -0.205181 0.000000 
-0.044272 0.050482 0.000000 
-0.082933 0.040748 0.000000 
-0.118748 0.030262 0.000000 
-0.151978 0.019081 0.000000 
-0.211720 -0.005141 0.000000 
-0.264240 -0.031465 0.000000 
-0.311618 -0.059437 0.000000 
-0.355542 -0.088641 0.000000 
-0.396126 -0.118798 0.000000 
-0.433091 -0.149667 0.000000 
-0.450129 -0.165292 0.000000 
-0.466157 -0.181005 0.000000 
-0.481140 -0.196775 0.000000 
-0.047962 0.058931 0.000000 
-0.087221 0.050225 0.000000 
-0.123619 0.040618 0.000000 
-0.157416 0.030170 0.000000 
-0.218242 0.007003 0.000000 
-0.271772 -0.018781 0.000000 
-0.320081 -0.046684 0.000000 
-0.364798 -0.076246 0.000000 
-0.405778 -0.107145 0.000000 
-0.442432 -0.139096 0.000000 
-0.458954 -0.155377 0.000000 
-0.474173 -0.171813 0.000000 
-0.488017 -0.188369 0.000000 
-0.051652 0.067380 0.000000 
-0.091508 0.059703 0.000000 
-0.128489 0.050973 0.000000 
-0.162853 0.041259 0.000000 
-0.224764 0.019146 0.000000 
-0.279305 -0.006097 0.000000 
-0.328544 -0.033931 0.000000 
-0.374053 -0.063851 0.000000 
-0.415429 -0.095493 0.000000 
-0.451774 -0.128526 0.000000 
-0.467779 -0.145461 0.000000 
-0.482190 -0.162621 0.000000 
-0.494894 -0.179963 0.000000 
-0.040582 0.042033 0.333333 
-0.078646 0.031271 0.333333 
-0.113878 0.019907 0.333333 
-0.146540 0.007992 0.333333 
-0.205198 -0.017284 0.333333 
-0.256707 -0.044149 0.333333 
-0.303155 -0.072191 0.333333 
-0.346286 -0.101036 0.333333 
-0.386475 -0.130451 0.333333 
-0.423750 -0.160237 0.333333 
-0.441303 -0.175208 0.333333 
-0.458140 -0.190197 0.333333 
-0.474263 -0.205181 0.333333 
-0.044272 0.050482 0.333333 
-0.082933 0.040748 0.333333 
-0.118748 0.030262 0.333333 
-0.151978 0.019081 0.333333 
-0.211720 -0.005141 0.333333 
-0.264240 -0.031465 0.333333 
-0.311618 -0.059437 0.333333 
-0.355542 -0.088641 0.333333 
-0.396126 -0.118798 0.333333 
-0.433091 -0.149667 0.333333 
-0.450129 -0.165292 0.333333 
-0.466157 -0.181005 0.333333 
-0.481140 -0.196775 0.333333 
-0.047962 0.058931 0.333333 
-0.087221 0.050225 0.333333 
-0.123619 0.040618 0.333333 
-0.157416 0.030170 0.333333 
-0.218242 0.007003 0.333333 
-0.271772 -0.018781 0.333333 
-0.320081 -0.046684 0.333333 
-0.364798 -0.076246 0.333333 
-0.405778 -0.107145 0.333333 
-0.442432 -0.139096 0.333333 
-0.458954 -0.155377 0.333333 
-0.474173 -0.171813 0.333333 
-0.488017 -0.188369 0.333333 
-0.051652 0.067380 0.333333 
-0.091508 0.059703 0.333333 
-0.128489 0.050973 0.333333 
-0.162853 0.041259 0.333333 
-0.224764 0.019146 0.333333 
-0.279305 -0.006097 0.333333 
-0.328544 -0.033931 0.333333 
-0.374053 -0.063851 0.333333 
-0.415429 -0.095493 0.333333 
-0.451774 -0.128526 0.333333 
-0.467779 -0.145461 0.333333 
-0.482190 -0.162621 0.333333 
-0.494894 -0.179963 0.333333 
-0.040582 0.042033 0.666667 
-0.078646 0.031271 0.666667 
-0.113878 0.019907 0.666667 
-0.146540 0.007992 0.666667 
-0.205198 -0.017284 0.666667 
-0.256707 -0.044149 0.666667 
-0.303155 -0.072191 0.666667 
-0.346286 -0.101036 0.666667 
-0.386475 -0.130451 0.666667 
-0.423750 -0.160237 0.666667 
-0.441303 -0.175208 0.666667 
-0.458140 -0.190197 0.666667 
-0.474263 -0.205181 0.666667 
-0.044272 0.050482 0.666667 
-0.082933 0.040748 0.666667 
-0.118748 0.030262 0.666667 
-0.151978 0.019081 0.666667 
-0.211720 -0.005141 0.666667 
-0.264240 -0.031465 0.666667 
-0.311618 -0.059437 0.666667 
-0.355542 -0.088641 0.666667 
-0.396126 -0.118798 0.666667 
-0.433091 -0.149667 0.666667 
-0.450129 -0.165292 0.666667 
-0.466157 -0.181005 0.666667 
-0.481140 -0.196775 0.666667 
-0.047962 0.058931 0.666667 
-0.087221 0.050225 0.666667 
-0.123619 0.040618 0.666667 
-0.157416 0.030170 0.666667 
-0.218242 0.007003 0.666667 
-0.271772 -0.018781 0.666667 
-0.320081 -0.046684 0.666667 
-0.364798 -0.076246 0.666667 
-0.405778 -0.107145 0.666667 
-0.442432 -0.139096 0.666667 
-0.458954 -0.155377 0.666667 
-0.474173 -0.171813 0.666667 
-0.488017 -0.188369 0.666667 
-0.051652 0.067380 0.666667 
-0.091508 0.059703 0.666667 
-0.128489 0.050973 0.666667 
-0.162853 0.041259 0.666667 
-0.224764 0.019146 0.666667 
-0.279305 -0.006097 0.666667 
-0.328544 -0.033931 0.666667 
-0.374053 -0.063851 0.666667 
-0.415429 -0.095493 0.666667 
-0.451774 -0.128526 0.666667 
-0.467779 -0.145461 0.666667 
-0.482190 -0.162621 0.666667 
-0.494894 -0.179963 0.666667 
-0.040582 0.042033 1.000000 
-0.078646 0.031271 1.000000 
-0.113878 0.019907 1.000000 
-0.146540 0.007992 1.000000 
-0.205198 -0.017284 1.000000 
-0.256707 -0.044149 1.000000 
-0.303155 -0.072191 1.000000 
-0.346286 -0.101036 1.000000 
-0.386475 -0.130451 1.000000 
-0.423750 -0.160237 1.000000 
-0.441303 -0.175208 1.000000 
-0.458140 -0.190197 1.000000 
-0.474263 -0.205181 1.000000 
-0.044272 0.050482 1.000000 
-0.082933 0.040748 1.000000 
-0.118748 0.030262 1.000000 
-0.151978 0.019081 1.000000 
-0.211720 -0.005141 1.000000 
-0.264240 -0.031465 1.000000 
-0.311618 -0.059437 1.000000 
-0.355542 -0.088641 1.000000 
-0.396126 -0.118798 1.000000 
-0.433091 -0.149667 1.000000 
-0.450129 -0.165292 1.000000 
-0.466157 -0.181005 1.000000 
-0.481140 -0.196775 1.000000 
-0.047962 0.058931 1.000000 
-0.087221 0.050225 1.000000 
-0.123619 0.040618 1.000000 
-0.157416 0.030170 1.000000 
-0.218242 0.007003 1.000000 
-0.271772 -0.018781 1.000000 
-0.320081 -0.046684 1.000000 
-0.364798 -0.076246 1.000000 
-0.405778 -0.107145 1.000000 
-0.442432 -0.139096 1.000000 
-0.458954 -0.155377 1.000000 
-0.474173 -0.171813 1.000000 
-0.488017 -0.188369 1.000000 
-0.051652 0.067380 1.000000 
-0.091508 0.059703 1.000000 
-0.128489 0.050973 1.000000 
-0.162853 0.041259 1.000000 
-0.224764 0.019146 1.000000 
-0.279305 -0.006097 1.000000 
-0.328544 -0.033931 1.000000 
-0.374053 -0.063851 1.000000 
-0.415429 -0.095493 1.000000 
-0.451774 -0.128526 1.000000 
-0.467779 -0.145461 1.000000 
-0.482190 -0.162621 1.000000 
-0.494894 -0.179963 1.000000 
Zone T="FFD_vol2" I=5 J=2 K=2
DATAPACKING=POINT
1.453366 -0.232652 0.000000 
1.351040 -0.189635 0.000000 
1.198792 -0.099503 0.000000 
1.060095 -0.061081 0.000000 
0.996473 -0.045510 0.000000 
1.474083 -0.209225 0.000000 
1.377832 -0.159066 0.000000 
1.227616 -0.058323 0.000000 
1.077099 -0.018922 0.000000 
1.011329 -0.016881 0.000000 
1.453366 -0.232652 1.000000 
1.351040 -0.189635 1.000000 
1.198792 -0.099503 1.000000 
1.060095 -0.061081 1.000000 
0.996473 -0.045510 1.000000 
1.474083 -0.209225 1.000000 
1.377832 -0.159066 1.000000 
1.227616 -0.058323 1.000000 
1.077099 -0.018922 1.000000 
1.011329 -0.016881 1.000000 
Zone T="embedding_vol" I=13 J=4 K=4
DATAPACKING=POINT
1.453366 -0.232652 0.000000 
1.420196 -0.218258 0.000000 
1.388780 -0.203835 0.000000 
1.358929 -0.189507 0.000000 
1.303172 -0.161628 0.000000 
1.251423 -0.135607 0.000000 
1.202180 -0.112431 0.000000 
1.154217 -0.092818 0.000000 
1.107411 -0.076425 0.000000 
1.061917 -0.062638 0.000000 
1.039710 -0.056532 0.000000 
1.017889 -0.050848 0.000000 
0.996473 -0.045510 0.000000 
1.460272 -0.224843 0.000000 
1.427715 -0.209678 0.000000 
1.396792 -0.194532 0.000000 
1.367317 -0.179528 0.000000 
1.311983 -0.150451 0.000000 
1.260244 -0.123444 0.000000 
1.210634 -0.099507 0.000000 
1.161982 -0.079412 0.000000 
1.114304 -0.063028 0.000000 
1.067914 -0.050000 0.000000 
1.045299 -0.044632 0.000000 
1.023123 -0.039969 0.000000 
1.001425 -0.035967 0.000000 
1.467178 -0.217034 0.000000 
1.435235 -0.201099 0.000000 
1.404804 -0.185228 0.000000 
1.375706 -0.169550 0.000000 
1.320793 -0.139273 0.000000 
1.269064 -0.111281 0.000000 
1.219087 -0.086583 0.000000 
1.169747 -0.066005 0.000000 
1.121198 -0.049632 0.000000 
1.073911 -0.037361 0.000000 
1.050888 -0.032732 0.000000 
1.028357 -0.029091 0.000000 
1.006377 -0.026424 0.000000 
1.474083 -0.209225 0.000000 
1.442754 -0.192519 0.000000 
1.412815 -0.175925 0.000000 
1.384094 -0.159571 0.000000 
1.329603 -0.128096 0.000000 
1.277885 -0.099117 0.000000 
1.227541 -0.073659 0.000000 
1.177512 -0.052599 0.000000 
1.128091 -0.036235 0.000000 
1.079908 -0.024722 0.000000 
1.056476 -0.020832 0.000000 
1.033591 -0.018212 0.000000 
1.011329 -0.016881 0.000000 
1.453366 -0.232652 0.333333 
1.420196 -0.218258 0.333333 
1.388780 -0.203835 0.333333 
1.358929 -0.189507 0.333333 
1.303172 -0.161628 0.333333 
1.251423 -0.135607 0.333333 
1.202180 -0.112431 0.333333 
1.154217 -0.092818 0.333333 
1.107411 -0.076425 0.333333 
1.061917 -0.062638 0.333333 
1.039710 -0.056532 0.333333 
1.017889 -0.050848 0.333333 
0.996473 -0.045510 0.333333 
1.460272 -0.224843 0.333333 
1.427715 -0.209678 0.333333 
1.396792 -0.194532 0.333333 
1.367317 -0.179528 0.333333 
1.311983 -0.150451 0.333333 
1.260244 -0.123444 0.333333 
1.210634 -0.099507 0.333333 
1.161982 -0.079412 0.333333 
1.114304 -0.063028 0.333333 
1.067914 -0.050000 0.333333 
1.045299 -0.044632 0.333333 
1.023123 -0.039969 0.333333 
1.001425 -0.035967 0.333333 
1.467178 -0.217034 0.333333 
1.435235 -0.201099 0.333333 
1.404804 -0.185228 0.333333 
1.375706 -0.169550 0.333333 
1.320793 -0.139273 0.333333 
1.269064 -0.111281 0.333333 
1.219087 -0.086583 0.333333 
1.169747 -0.066005 0.333333 
1.121198 -0.049632 0.333333 
1.073911 -0.037361 0.333333 
1.050888 -0.032732 0.333333 
1.028357 -0.029091 0.333333 
1.006377 -0.026424 0.333333 
1.474083 -0.209225 0.333333 
1.442754 -0.192519 0.333333 
1.412815 -0.175925 0.333333 
1.384094 -0.159571 0.333333 
1.329603 -0.128096 0.333333 
1.277885 -0.099117 0.333333 
1.227541 -0.073659 0.333333 
1.177512 -0.052599 0.333333 
1.128091 -0.036235 0.333333 
1.079908 -0.024722 0.333333 
1.056476 -0.020832 0.333333 
1.033591 -0.018212 0.333333 
1.011329 -0.016881 0.333333 
1.453366 -0.232652 0.666667 
1.420196 -0.218258 0.666667 
1.388780 -0.203835 0.666667 
1.358929 -0.189507 0.666667 
1.303172 -0.161628 0.666667 
1.251423 -0.135607 0.666667 
1.202180 -0.112431 0.666667 
1.154217 -0.092818 0.666667 
1.107411 -0.076425 0.666667 
1.061917 -0.062638 0.666667 
1.039710 -0.056532 0.666667 
1.017889 -0.050848 0.666667 
0.996473 -0.045510 0.666667 
1.460272 -0.224843 0.666667 
1.427715 -0.209678 0.666667 
1.396792 -0.194532 0.666667 
1.367317 -0.179528 0.666667 
1.311983 -0.150451 0.666667 
1.260244 -0.123444 0.666667 
1.210634 -0.099507 0.666667 
1.161982 -0.079412 0.666667 
1.114304 -0.063028 0.666667 
1.067914 -0.050000 0.666667 
1.045299 -0.044632 0.666667 
1.023123 -0.039969 0.666667 
1.001425 -0.035967 0.666667 
1.467178 -0.217034 0.666667 
1.435235 -0.201099 0.666667 
1.404804 -0.185228 0.666667 
1.375706 -0.169550 0.666667 
1.320793 -0.139273 0.666667 
1.269064 -0.111281 0.666667 
1.219087 -0.086583 0.666667 
1.169747 -0.066005 0.666667 
1.121198 -0.049632 0.666667 
1.073911 -0.037361 0.666667 
1.050888 -0.032732 0.666667 
1.028357 -0.029091 0.666667 
1.006377 -0.026424 0.666667 
1.474083 -0.209225 0.666667 
1.442754 -0.192519 0.666667 
1.412815 -0.175925 0.666667 
1.384094 -0.159571 0.666667 
1.329603 -0.128096 0.666667 
1.277885 -0.099117 0.666667 
1.227541 -0.073659 0.666667 
1.177512 -0.052599 0.666667 
1.128091 -0.036235 0.666667 
1.079908 -0.024722 0.666667 
1.056476 -0.020832 0.666667 
1.033591 -0.018212 0.666667 
1.011329 -0.016881 0.666667 
1.453366 -0.232652 1.000000 
1.420196 -0.218258 1.000000 
1.388780 -0.203835 1.000000 
1.358929 -0.189507 1.000000 
1.303172 -0.161628 1.000000 
1.251423 -0.135607 1.000000 
1.202180 -0.112431 1.000000 
1.154217 -0.092818 1.000000 
1.107411 -0.076425 1.000000 
1.061917 -0.062638 1.000000 
1.039710 -0.056532 1.000000 
1.017889 -0.050848 1.000000 
0.996473 -0.045510 1.000000 
1.460272 -0.224843 1.000000 
1.427715 -0.209678 1.000000 
1.396792 -0.194532 1.000000 
1.367317 -0.179528 1.000000 
1.311983 -0.150451 1.000000 
1.260244 -0.123444 1.000000 
1.210634 -0.099507 1.000000 
1.161982 -0.079412 1.000000 
1.114304 -0.063028 1.000000 
1.067914 -0.050000 1.000000 
1.045299 -0.044632 1.000000 
1.023123 -0.039969 1.000000 
1.001425 -0.035967 1.000000 
1.467178 -0.217034 1.000000 
1.435235 -0.201099 1.000000 
1.404804 -0.185228 1.000000 
1.375706 -0.169550 1.000000 
1.320793 -0.139273 1.000000 
1.269064 -0.111281 1.000000 
1.219087 -0.086583 1.000000 
1.169747 -0.066005 1.000000 
1.121198 -0.049632 1.000000 
1.073911 -0.037361 1.000000 
1.050888 -0.032732 1.000000 
1.028357 -0.029091 1.000000 
1.006377 -0.026424 1.000000 
1.474083 -0.209225 1.000000 
1.442754 -0.192519 1.000000 
1.412815 -0.175925 1.000000 
1.384094 -0.159571 1.000000 
1.329603 -0.128096 1.000000 
1.277885 -0.099117 1.000000 
1.227541 -0.073659 1.000000 
1.177512 -0.052599 1.000000 
1.128091 -0.036235 1.000000 
1.079908 -0.024722 1.000000 
1.056476 -0.020832 1.000000 
1.033591 -0.018212 1.000000 
1.011329 -0.016881 1.000000 
