VARIABLES = "CoordinateX", "CoordinateY", "CoordinateZ"
Zone T="FFD_vol0" I=9 J=2 K=2
DATAPACKING=POINT
1.000000 0.027500 0.000000 
0.956762 0.105978 0.000000 
0.879873 0.178356 0.000000 
0.743144 0.258435 0.000000 
0.500000 0.307300 0.000000 
0.256856 0.259006 0.000000 
0.120127 0.180884 0.000000 
0.043238 0.113032 0.000000 
0.000000 0.050000 0.000000 
1.000000 -0.027500 0.000000 
0.956762 0.020616 0.000000 
0.879873 0.076627 0.000000 
0.743144 0.124844 0.000000 
0.500000 0.145507 0.000000 
0.256856 0.124272 0.000000 
0.120127 0.074099 0.000000 
0.043238 0.013562 0.000000 
0.000000 -0.050000 0.000000 
1.000000 0.027500 0.100000 
0.956762 0.105978 0.100000 
0.879873 0.178356 0.100000 
0.743144 0.258435 0.100000 
0.500000 0.307300 0.100000 
0.256856 0.259006 0.100000 
0.120127 0.180884 0.100000 
0.043238 0.113032 0.100000 
0.000000 0.050000 0.100000 
1.000000 -0.027500 0.100000 
0.956762 0.020616 0.100000 
0.879873 0.076627 0.100000 
0.743144 0.124844 0.100000 
0.500000 0.145507 0.100000 
0.256856 0.124272 0.100000 
0.120127 0.074099 0.100000 
0.043238 0.013562 0.100000 
0.000000 -0.050000 0.100000 
Zone T="embedding_vol" I=25 J=4 K=4
DATAPACKING=POINT
1.000000 0.027500 0.000000 
0.985753 0.052145 0.000000 
0.971793 0.073966 0.000000 
0.958050 0.093272 0.000000 
0.930942 0.125577 0.000000 
0.903878 0.151532 0.000000 
0.876307 0.173608 0.000000 
0.832583 0.203450 0.000000 
0.783333 0.230025 0.000000 
0.725408 0.253233 0.000000 
0.656841 0.272582 0.000000 
0.580391 0.286021 0.000000 
0.500000 0.291107 0.000000 
0.419609 0.286220 0.000000 
0.343159 0.273031 0.000000 
0.274592 0.254035 0.000000 
0.216667 0.231346 0.000000 
0.167417 0.205572 0.000000 
0.123693 0.176941 0.000000 
0.096122 0.156092 0.000000 
0.069058 0.132418 0.000000 
0.041950 0.104262 0.000000 
0.028207 0.087985 0.000000 
0.014247 0.069967 0.000000 
0.000000 0.050000 0.000000 
1.000000 0.009167 0.000000 
0.985753 0.030701 0.000000 
0.971793 0.049895 0.000000 
0.958050 0.066993 0.000000 
0.930942 0.095884 0.000000 
0.903878 0.119331 0.000000 
0.876307 0.139292 0.000000 
0.832583 0.165887 0.000000 
0.783333 0.189080 0.000000 
0.725408 0.208906 0.000000 
0.656841 0.225092 0.000000 
0.580391 0.236141 0.000000 
0.500000 0.240246 0.000000 
0.419609 0.236207 0.000000 
0.343159 0.225242 0.000000 
0.274592 0.209173 0.000000 
0.216667 0.189520 0.000000 
0.167417 0.166594 0.000000 
0.123693 0.140403 0.000000 
0.096122 0.120851 0.000000 
0.069058 0.098164 0.000000 
0.041950 0.070657 0.000000 
0.028207 0.054568 0.000000 
0.014247 0.036642 0.000000 
0.000000 0.016667 0.000000 
1.000000 -0.009167 0.000000 
0.985753 0.009257 0.000000 
0.971793 0.025824 0.000000 
0.958050 0.040715 0.000000 
0.930942 0.066191 0.000000 
0.903878 0.087130 0.000000 
0.876307 0.104976 0.000000 
0.832583 0.128324 0.000000 
0.783333 0.148135 0.000000 
0.725408 0.164578 0.000000 
0.656841 0.177602 0.000000 
0.580391 0.186260 0.000000 
0.500000 0.189385 0.000000 
0.419609 0.186194 0.000000 
0.343159 0.177452 0.000000 
0.274592 0.164311 0.000000 
0.216667 0.147694 0.000000 
0.167417 0.127616 0.000000 
0.123693 0.103865 0.000000 
0.096122 0.085610 0.000000 
0.069058 0.063911 0.000000 
0.041950 0.037052 0.000000 
0.028207 0.021151 0.000000 
0.014247 0.003316 0.000000 
0.000000 -0.016667 0.000000 
1.000000 -0.027500 0.000000 
0.985753 -0.012187 0.000000 
0.971793 0.001753 0.000000 
0.958050 0.014436 0.000000 
0.930942 0.036497 0.000000 
0.903878 0.054928 0.000000 
0.876307 0.070660 0.000000 
0.832583 0.090761 0.000000 
0.783333 0.107190 0.000000 
0.725408 0.120251 0.000000 
0.656841 0.130112 0.000000 
0.580391 0.136380 0.000000 
0.500000 0.138524 0.000000 
0.419609 0.136181 0.000000 
0.343159 0.129663 0.000000 
0.274592 0.119449 0.000000 
0.216667 0.105868 0.000000 
0.167417 0.088638 0.000000 
0.123693 0.067327 0.000000 
0.096122 0.050368 0.000000 
0.069058 0.029657 0.000000 
0.041950 0.003446 0.000000 
0.028207 -0.012267 0.000000 
0.014247 -0.030009 0.000000 
0.000000 -0.050000 0.000000 
1.000000 0.027500 0.033333 
0.985753 0.052145 0.033333 
0.971793 0.073966 0.033333 
0.958050 0.093272 0.033333 
0.930942 0.125577 0.033333 
0.903878 0.151532 0.033333 
0.876307 0.173608 0.033333 
0.832583 0.203450 0.033333 
0.783333 0.230025 0.033333 
0.725408 0.253233 0.033333 
0.656841 0.272582 0.033333 
0.580391 0.286021 0.033333 
0.500000 0.291107 0.033333 
0.419609 0.286220 0.033333 
0.343159 0.273031 0.033333 
0.274592 0.254035 0.033333 
0.216667 0.231346 0.033333 
0.167417 0.205572 0.033333 
0.123693 0.176941 0.033333 
0.096122 0.156092 0.033333 
0.069058 0.132418 0.033333 
0.041950 0.104262 0.033333 
0.028207 0.087985 0.033333 
0.014247 0.069967 0.033333 
0.000000 0.050000 0.033333 
1.000000 0.009167 0.033333 
0.985753 0.030701 0.033333 
0.971793 0.049895 0.033333 
0.958050 0.066993 0.033333 
0.930942 0.095884 0.033333 
0.903878 0.119331 0.033333 
0.876307 0.139292 0.033333 
0.832583 0.165887 0.033333 
0.783333 0.189080 0.033333 
0.725408 0.208906 0.033333 
0.656841 0.225092 0.033333 
0.580391 0.236141 0.033333 
0.500000 0.240246 0.033333 
0.419609 0.236207 0.033333 
0.343159 0.225242 0.033333 
0.274592 0.209173 0.033333 
0.216667 0.189520 0.033333 
0.167417 0.166594 0.033333 
0.123693 0.140403 0.033333 
0.096122 0.120851 0.033333 
0.069058 0.098164 0.033333 
0.041950 0.070657 0.033333 
0.028207 0.054568 0.033333 
0.014247 0.036642 0.033333 
0.000000 0.016667 0.033333 
1.000000 -0.009167 0.033333 
0.985753 0.009257 0.033333 
0.971793 0.025824 0.033333 
0.958050 0.040715 0.033333 
0.930942 0.066191 0.033333 
0.903878 0.087130 0.033333 
0.876307 0.104976 0.033333 
0.832583 0.128324 0.033333 
0.783333 0.148135 0.033333 
0.725408 0.164578 0.033333 
0.656841 0.177602 0.033333 
0.580391 0.186260 0.033333 
0.500000 0.189385 0.033333 
0.419609 0.186194 0.033333 
0.343159 0.177452 0.033333 
0.274592 0.164311 0.033333 
0.216667 0.147694 0.033333 
0.167417 0.127616 0.033333 
0.123693 0.103865 0.033333 
0.096122 0.085610 0.033333 
0.069058 0.063911 0.033333 
0.041950 0.037052 0.033333 
0.028207 0.021151 0.033333 
0.014247 0.003316 0.033333 
0.000000 -0.016667 0.033333 
1.000000 -0.027500 0.033333 
0.985753 -0.012187 0.033333 
0.971793 0.001753 0.033333 
0.958050 0.014436 0.033333 
0.930942 0.036497 0.033333 
0.903878 0.054928 0.033333 
0.876307 0.070660 0.033333 
0.832583 0.090761 0.033333 
0.783333 0.107190 0.033333 
0.725408 0.120251 0.033333 
0.656841 0.130112 0.033333 
0.580391 0.136380 0.033333 
0.500000 0.138524 0.033333 
0.419609 0.136181 0.033333 
0.343159 0.129663 0.033333 
0.274592 0.119449 0.033333 
0.216667 0.105868 0.033333 
0.167417 0.088638 0.033333 
0.123693 0.067327 0.033333 
0.096122 0.050368 0.033333 
0.069058 0.029657 0.033333 
0.041950 0.003446 0.033333 
0.028207 -0.012267 0.033333 
0.014247 -0.030009 0.033333 
0.000000 -0.050000 0.033333 
1.000000 0.027500 0.066667 
0.985753 0.052145 0.066667 
0.971793 0.073966 0.066667 
0.958050 0.093272 0.066667 
0.930942 0.125577 0.066667 
0.903878 0.151532 0.066667 
0.876307 0.173608 0.066667 
0.832583 0.203450 0.066667 
0.783333 0.230025 0.066667 
0.725408 0.253233 0.066667 
0.656841 0.272582 0.066667 
0.580391 0.286021 0.066667 
0.500000 0.291107 0.066667 
0.419609 0.286220 0.066667 
0.343159 0.273031 0.066667 
0.274592 0.254035 0.066667 
0.216667 0.231346 0.066667 
0.167417 0.205572 0.066667 
0.123693 0.176941 0.066667 
0.096122 0.156092 0.066667 
0.069058 0.132418 0.066667 
0.041950 0.104262 0.066667 
0.028207 0.087985 0.066667 
0.014247 0.069967 0.066667 
0.000000 0.050000 0.066667 
1.000000 0.009167 0.066667 
0.985753 0.030701 0.066667 
0.971793 0.049895 0.066667 
0.958050 0.066993 0.066667 
0.930942 0.095884 0.066667 
0.903878 0.119331 0.066667 
0.876307 0.139292 0.066667 
0.832583 0.165887 0.066667 
0.783333 0.189080 0.066667 
0.725408 0.208906 0.066667 
0.656841 0.225092 0.066667 
0.580391 0.236141 0.066667 
0.500000 0.240246 0.066667 
0.419609 0.236207 0.066667 
0.343159 0.225242 0.066667 
0.274592 0.209173 0.066667 
0.216667 0.189520 0.066667 
0.167417 0.166594 0.066667 
0.123693 0.140403 0.066667 
0.096122 0.120851 0.066667 
0.069058 0.098164 0.066667 
0.041950 0.070657 0.066667 
0.028207 0.054568 0.066667 
0.014247 0.036642 0.066667 
0.000000 0.016667 0.066667 
1.000000 -0.009167 0.066667 
0.985753 0.009257 0.066667 
0.971793 0.025824 0.066667 
0.958050 0.040715 0.066667 
0.930942 0.066191 0.066667 
0.903878 0.087130 0.066667 
0.876307 0.104976 0.066667 
0.832583 0.128324 0.066667 
0.783333 0.148135 0.066667 
0.725408 0.164578 0.066667 
0.656841 0.177602 0.066667 
0.580391 0.186260 0.066667 
0.500000 0.189385 0.066667 
0.419609 0.186194 0.066667 
0.343159 0.177452 0.066667 
0.274592 0.164311 0.066667 
0.216667 0.147694 0.066667 
0.167417 0.127616 0.066667 
0.123693 0.103865 0.066667 
0.096122 0.085610 0.066667 
0.069058 0.063911 0.066667 
0.041950 0.037052 0.066667 
0.028207 0.021151 0.066667 
0.014247 0.003316 0.066667 
0.000000 -0.016667 0.066667 
1.000000 -0.027500 0.066667 
0.985753 -0.012187 0.066667 
0.971793 0.001753 0.066667 
0.958050 0.014436 0.066667 
0.930942 0.036497 0.066667 
0.903878 0.054928 0.066667 
0.876307 0.070660 0.066667 
0.832583 0.090761 0.066667 
0.783333 0.107190 0.066667 
0.725408 0.120251 0.066667 
0.656841 0.130112 0.066667 
0.580391 0.136380 0.066667 
0.500000 0.138524 0.066667 
0.419609 0.136181 0.066667 
0.343159 0.129663 0.066667 
0.274592 0.119449 0.066667 
0.216667 0.105868 0.066667 
0.167417 0.088638 0.066667 
0.123693 0.067327 0.066667 
0.096122 0.050368 0.066667 
0.069058 0.029657 0.066667 
0.041950 0.003446 0.066667 
0.028207 -0.012267 0.066667 
0.014247 -0.030009 0.066667 
0.000000 -0.050000 0.066667 
1.000000 0.027500 0.100000 
0.985753 0.052145 0.100000 
0.971793 0.073966 0.100000 
0.958050 0.093272 0.100000 
0.930942 0.125577 0.100000 
0.903878 0.151532 0.100000 
0.876307 0.173608 0.100000 
0.832583 0.203450 0.100000 
0.783333 0.230025 0.100000 
0.725408 0.253233 0.100000 
0.656841 0.272582 0.100000 
0.580391 0.286021 0.100000 
0.500000 0.291107 0.100000 
0.419609 0.286220 0.100000 
0.343159 0.273031 0.100000 
0.274592 0.254035 0.100000 
0.216667 0.231346 0.100000 
0.167417 0.205572 0.100000 
0.123693 0.176941 0.100000 
0.096122 0.156092 0.100000 
0.069058 0.132418 0.100000 
0.041950 0.104262 0.100000 
0.028207 0.087985 0.100000 
0.014247 0.069967 0.100000 
0.000000 0.050000 0.100000 
1.000000 0.009167 0.100000 
0.985753 0.030701 0.100000 
0.971793 0.049895 0.100000 
0.958050 0.066993 0.100000 
0.930942 0.095884 0.100000 
0.903878 0.119331 0.100000 
0.876307 0.139292 0.100000 
0.832583 0.165887 0.100000 
0.783333 0.189080 0.100000 
0.725408 0.208906 0.100000 
0.656841 0.225092 0.100000 
0.580391 0.236141 0.100000 
0.500000 0.240246 0.100000 
0.419609 0.236207 0.100000 
0.343159 0.225242 0.100000 
0.274592 0.209173 0.100000 
0.216667 0.189520 0.100000 
0.167417 0.166594 0.100000 
0.123693 0.140403 0.100000 
0.096122 0.120851 0.100000 
0.069058 0.098164 0.100000 
0.041950 0.070657 0.100000 
0.028207 0.054568 0.100000 
0.014247 0.036642 0.100000 
0.000000 0.016667 0.100000 
1.000000 -0.009167 0.100000 
0.985753 0.009257 0.100000 
0.971793 0.025824 0.100000 
0.958050 0.040715 0.100000 
0.930942 0.066191 0.100000 
0.903878 0.087130 0.100000 
0.876307 0.104976 0.100000 
0.832583 0.128324 0.100000 
0.783333 0.148135 0.100000 
0.725408 0.164578 0.100000 
0.656841 0.177602 0.100000 
0.580391 0.186260 0.100000 
0.500000 0.189385 0.100000 
0.419609 0.186194 0.100000 
0.343159 0.177452 0.100000 
0.274592 0.164311 0.100000 
0.216667 0.147694 0.100000 
0.167417 0.127616 0.100000 
0.123693 0.103865 0.100000 
0.096122 0.085610 0.100000 
0.069058 0.063911 0.100000 
0.041950 0.037052 0.100000 
0.028207 0.021151 0.100000 
0.014247 0.003316 0.100000 
0.000000 -0.016667 0.100000 
1.000000 -0.027500 0.100000 
0.985753 -0.012187 0.100000 
0.971793 0.001753 0.100000 
0.958050 0.014436 0.100000 
0.930942 0.036497 0.100000 
0.903878 0.054928 0.100000 
0.876307 0.070660 0.100000 
0.832583 0.090761 0.100000 
0.783333 0.107190 0.100000 
0.725408 0.120251 0.100000 
0.656841 0.130112 0.100000 
0.580391 0.136380 0.100000 
0.500000 0.138524 0.100000 
0.419609 0.136181 0.100000 
0.343159 0.129663 0.100000 
0.274592 0.119449 0.100000 
0.216667 0.105868 0.100000 
0.167417 0.088638 0.100000 
0.123693 0.067327 0.100000 
0.096122 0.050368 0.100000 
0.069058 0.029657 0.100000 
0.041950 0.003446 0.100000 
0.028207 -0.012267 0.100000 
0.014247 -0.030009 0.100000 
0.000000 -0.050000 0.100000 
Zone T="FFD_vol1" I=9 J=2 K=2
DATAPACKING=POINT
1.962261 -0.414962 0.000000 
1.896771 -0.348298 0.000000 
1.797683 -0.260820 0.000000 
1.690097 -0.182318 0.000000 
1.575036 -0.115326 0.000000 
1.453362 -0.061522 0.000000 
1.324686 -0.030609 0.000000 
1.192255 -0.029730 0.000000 
1.021710 -0.075302 0.000000 
1.957131 -0.429059 0.000000 
1.890306 -0.363755 0.000000 
1.789015 -0.278883 0.000000 
1.679139 -0.203642 0.000000 
1.562102 -0.140141 0.000000 
1.439063 -0.089468 0.000000 
1.309690 -0.061404 0.000000 
1.177229 -0.062482 0.000000 
1.018290 -0.084698 0.000000 
1.962261 -0.414962 0.100000 
1.896771 -0.348298 0.100000 
1.797683 -0.260820 0.100000 
1.690097 -0.182318 0.100000 
1.575036 -0.115326 0.100000 
1.453362 -0.061522 0.100000 
1.324686 -0.030609 0.100000 
1.192255 -0.029730 0.100000 
1.021710 -0.075302 0.100000 
1.957131 -0.429059 0.100000 
1.890306 -0.363755 0.100000 
1.789015 -0.278883 0.100000 
1.679139 -0.203642 0.100000 
1.562102 -0.140141 0.100000 
1.439063 -0.089468 0.100000 
1.309690 -0.061404 0.100000 
1.177229 -0.062482 0.100000 
1.018290 -0.084698 0.100000 
Zone T="embedding_vol" I=25 J=4 K=4
DATAPACKING=POINT
1.962261 -0.414962 0.000000 
1.941009 -0.393571 0.000000 
1.920864 -0.373761 0.000000 
1.901749 -0.355416 0.000000 
1.866315 -0.322658 0.000000 
1.834106 -0.294365 0.000000 
1.804524 -0.269606 0.000000 
1.763802 -0.237327 0.000000 
1.725843 -0.209379 0.000000 
1.688851 -0.184236 0.000000 
1.651333 -0.160637 0.000000 
1.613017 -0.138379 0.000000 
1.573934 -0.117524 0.000000 
1.534108 -0.098184 0.000000 
1.493533 -0.080669 0.000000 
1.452195 -0.065337 0.000000 
1.409692 -0.052531 0.000000 
1.364080 -0.042516 0.000000 
1.313024 -0.035541 0.000000 
1.273911 -0.033142 0.000000 
1.225240 -0.034908 0.000000 
1.160911 -0.043546 0.000000 
1.120968 -0.051286 0.000000 
1.074822 -0.061759 0.000000 
1.021710 -0.075302 0.000000 
1.960551 -0.419661 0.000000 
1.939154 -0.398420 0.000000 
1.918868 -0.378759 0.000000 
1.899619 -0.360562 0.000000 
1.863931 -0.328092 0.000000 
1.831489 -0.300079 0.000000 
1.801691 -0.275591 0.000000 
1.760675 -0.243700 0.000000 
1.722452 -0.216127 0.000000 
1.685216 -0.191357 0.000000 
1.647467 -0.168136 0.000000 
1.608936 -0.146257 0.000000 
1.569656 -0.125776 0.000000 
1.529657 -0.106797 0.000000 
1.488931 -0.089630 0.000000 
1.447466 -0.074637 0.000000 
1.404861 -0.062158 0.000000 
1.359170 -0.052465 0.000000 
1.308062 -0.045811 0.000000 
1.268968 -0.043537 0.000000 
1.220581 -0.044897 0.000000 
1.157051 -0.052060 0.000000 
1.117780 -0.058496 0.000000 
1.072530 -0.067197 0.000000 
1.020570 -0.078434 0.000000 
1.958841 -0.424360 0.000000 
1.937298 -0.403269 0.000000 
1.916873 -0.383757 0.000000 
1.897489 -0.365707 0.000000 
1.861548 -0.333526 0.000000 
1.828872 -0.305794 0.000000 
1.798858 -0.281576 0.000000 
1.757549 -0.250073 0.000000 
1.719061 -0.222875 0.000000 
1.681581 -0.198478 0.000000 
1.643602 -0.175635 0.000000 
1.604855 -0.154136 0.000000 
1.565379 -0.134027 0.000000 
1.525205 -0.115410 0.000000 
1.484328 -0.098592 0.000000 
1.442736 -0.083936 0.000000 
1.400029 -0.071785 0.000000 
1.354261 -0.062415 0.000000 
1.303099 -0.056081 0.000000 
1.264026 -0.053933 0.000000 
1.215922 -0.054885 0.000000 
1.153192 -0.060574 0.000000 
1.114593 -0.065706 0.000000 
1.070239 -0.072635 0.000000 
1.019430 -0.081566 0.000000 
1.957131 -0.429059 0.000000 
1.935443 -0.408118 0.000000 
1.914877 -0.388755 0.000000 
1.895359 -0.370852 0.000000 
1.859165 -0.338960 0.000000 
1.826254 -0.311508 0.000000 
1.796025 -0.287561 0.000000 
1.754422 -0.256447 0.000000 
1.715670 -0.229624 0.000000 
1.677945 -0.205599 0.000000 
1.639736 -0.183134 0.000000 
1.600774 -0.162014 0.000000 
1.561101 -0.142279 0.000000 
1.520753 -0.124023 0.000000 
1.479726 -0.107554 0.000000 
1.438007 -0.093236 0.000000 
1.395198 -0.081413 0.000000 
1.349352 -0.072364 0.000000 
1.298137 -0.066351 0.000000 
1.259083 -0.064329 0.000000 
1.211263 -0.064874 0.000000 
1.149332 -0.069088 0.000000 
1.111405 -0.072915 0.000000 
1.067947 -0.078073 0.000000 
1.018290 -0.084698 0.000000 
1.962261 -0.414962 0.033333 
1.941009 -0.393571 0.033333 
1.920864 -0.373761 0.033333 
1.901749 -0.355416 0.033333 
1.866315 -0.322658 0.033333 
1.834106 -0.294365 0.033333 
1.804524 -0.269606 0.033333 
1.763802 -0.237327 0.033333 
1.725843 -0.209379 0.033333 
1.688851 -0.184236 0.033333 
1.651333 -0.160637 0.033333 
1.613017 -0.138379 0.033333 
1.573934 -0.117524 0.033333 
1.534108 -0.098184 0.033333 
1.493533 -0.080669 0.033333 
1.452195 -0.065337 0.033333 
1.409692 -0.052531 0.033333 
1.364080 -0.042516 0.033333 
1.313024 -0.035541 0.033333 
1.273911 -0.033142 0.033333 
1.225240 -0.034908 0.033333 
1.160911 -0.043546 0.033333 
1.120968 -0.051286 0.033333 
1.074822 -0.061759 0.033333 
1.021710 -0.075302 0.033333 
1.960551 -0.419661 0.033333 
1.939154 -0.398420 0.033333 
1.918868 -0.378759 0.033333 
1.899619 -0.360562 0.033333 
1.863931 -0.328092 0.033333 
1.831489 -0.300079 0.033333 
1.801691 -0.275591 0.033333 
1.760675 -0.243700 0.033333 
1.722452 -0.216127 0.033333 
1.685216 -0.191357 0.033333 
1.647467 -0.168136 0.033333 
1.608936 -0.146257 0.033333 
1.569656 -0.125776 0.033333 
1.529657 -0.106797 0.033333 
1.488931 -0.089630 0.033333 
1.447466 -0.074637 0.033333 
1.404861 -0.062158 0.033333 
1.359170 -0.052465 0.033333 
1.308062 -0.045811 0.033333 
1.268968 -0.043537 0.033333 
1.220581 -0.044897 0.033333 
1.157051 -0.052060 0.033333 
1.117780 -0.058496 0.033333 
1.072530 -0.067197 0.033333 
1.020570 -0.078434 0.033333 
1.958841 -0.424360 0.033333 
1.937298 -0.403269 0.033333 
1.916873 -0.383757 0.033333 
1.897489 -0.365707 0.033333 
1.861548 -0.333526 0.033333 
1.828872 -0.305794 0.033333 
1.798858 -0.281576 0.033333 
1.757549 -0.250073 0.033333 
1.719061 -0.222875 0.033333 
1.681581 -0.198478 0.033333 
1.643602 -0.175635 0.033333 
1.604855 -0.154136 0.033333 
1.565379 -0.134027 0.033333 
1.525205 -0.115410 0.033333 
1.484328 -0.098592 0.033333 
1.442736 -0.083936 0.033333 
1.400029 -0.071785 0.033333 
1.354261 -0.062415 0.033333 
1.303099 -0.056081 0.033333 
1.264026 -0.053933 0.033333 
1.215922 -0.054885 0.033333 
1.153192 -0.060574 0.033333 
1.114593 -0.065706 0.033333 
1.070239 -0.072635 0.033333 
1.019430 -0.081566 0.033333 
1.957131 -0.429059 0.033333 
1.935443 -0.408118 0.033333 
1.914877 -0.388755 0.033333 
1.895359 -0.370852 0.033333 
1.859165 -0.338960 0.033333 
1.826254 -0.311508 0.033333 
1.796025 -0.287561 0.033333 
1.754422 -0.256447 0.033333 
1.715670 -0.229624 0.033333 
1.677945 -0.205599 0.033333 
1.639736 -0.183134 0.033333 
1.600774 -0.162014 0.033333 
1.561101 -0.142279 0.033333 
1.520753 -0.124023 0.033333 
1.479726 -0.107554 0.033333 
1.438007 -0.093236 0.033333 
1.395198 -0.081413 0.033333 
1.349352 -0.072364 0.033333 
1.298137 -0.066351 0.033333 
1.259083 -0.064329 0.033333 
1.211263 -0.064874 0.033333 
1.149332 -0.069088 0.033333 
1.111405 -0.072915 0.033333 
1.067947 -0.078073 0.033333 
1.018290 -0.084698 0.033333 
1.962261 -0.414962 0.066667 
1.941009 -0.393571 0.066667 
1.920864 -0.373761 0.066667 
1.901749 -0.355416 0.066667 
1.866315 -0.322658 0.066667 
1.834106 -0.294365 0.066667 
1.804524 -0.269606 0.066667 
1.763802 -0.237327 0.066667 
1.725843 -0.209379 0.066667 
1.688851 -0.184236 0.066667 
1.651333 -0.160637 0.066667 
1.613017 -0.138379 0.066667 
1.573934 -0.117524 0.066667 
1.534108 -0.098184 0.066667 
1.493533 -0.080669 0.066667 
1.452195 -0.065337 0.066667 
1.409692 -0.052531 0.066667 
1.364080 -0.042516 0.066667 
1.313024 -0.035541 0.066667 
1.273911 -0.033142 0.066667 
1.225240 -0.034908 0.066667 
1.160911 -0.043546 0.066667 
1.120968 -0.051286 0.066667 
1.074822 -0.061759 0.066667 
1.021710 -0.075302 0.066667 
1.960551 -0.419661 0.066667 
1.939154 -0.398420 0.066667 
1.918868 -0.378759 0.066667 
1.899619 -0.360562 0.066667 
1.863931 -0.328092 0.066667 
1.831489 -0.300079 0.066667 
1.801691 -0.275591 0.066667 
1.760675 -0.243700 0.066667 
1.722452 -0.216127 0.066667 
1.685216 -0.191357 0.066667 
1.647467 -0.168136 0.066667 
1.608936 -0.146257 0.066667 
1.569656 -0.125776 0.066667 
1.529657 -0.106797 0.066667 
1.488931 -0.089630 0.066667 
1.447466 -0.074637 0.066667 
1.404861 -0.062158 0.066667 
1.359170 -0.052465 0.066667 
1.308062 -0.045811 0.066667 
1.268968 -0.043537 0.066667 
1.220581 -0.044897 0.066667 
1.157051 -0.052060 0.066667 
1.117780 -0.058496 0.066667 
1.072530 -0.067197 0.066667 
1.020570 -0.078434 0.066667 
1.958841 -0.424360 0.066667 
1.937298 -0.403269 0.066667 
1.916873 -0.383757 0.066667 
1.897489 -0.365707 0.066667 
1.861548 -0.333526 0.066667 
1.828872 -0.305794 0.066667 
1.798858 -0.281576 0.066667 
1.757549 -0.250073 0.066667 
1.719061 -0.222875 0.066667 
1.681581 -0.198478 0.066667 
1.643602 -0.175635 0.066667 
1.604855 -0.154136 0.066667 
1.565379 -0.134027 0.066667 
1.525205 -0.115410 0.066667 
1.484328 -0.098592 0.066667 
1.442736 -0.083936 0.066667 
1.400029 -0.071785 0.066667 
1.354261 -0.062415 0.066667 
1.303099 -0.056081 0.066667 
1.264026 -0.053933 0.066667 
1.215922 -0.054885 0.066667 
1.153192 -0.060574 0.066667 
1.114593 -0.065706 0.066667 
1.070239 -0.072635 0.066667 
1.019430 -0.081566 0.066667 
1.957131 -0.429059 0.066667 
1.935443 -0.408118 0.066667 
1.914877 -0.388755 0.066667 
1.895359 -0.370852 0.066667 
1.859165 -0.338960 0.066667 
1.826254 -0.311508 0.066667 
1.796025 -0.287561 0.066667 
1.754422 -0.256447 0.066667 
1.715670 -0.229624 0.066667 
1.677945 -0.205599 0.066667 
1.639736 -0.183134 0.066667 
1.600774 -0.162014 0.066667 
1.561101 -0.142279 0.066667 
1.520753 -0.124023 0.066667 
1.479726 -0.107554 0.066667 
1.438007 -0.093236 0.066667 
1.395198 -0.081413 0.066667 
1.349352 -0.072364 0.066667 
1.298137 -0.066351 0.066667 
1.259083 -0.064329 0.066667 
1.211263 -0.064874 0.066667 
1.149332 -0.069088 0.066667 
1.111405 -0.072915 0.066667 
1.067947 -0.078073 0.066667 
1.018290 -0.084698 0.066667 
1.962261 -0.414962 0.100000 
1.941009 -0.393571 0.100000 
1.920864 -0.373761 0.100000 
1.901749 -0.355416 0.100000 
1.866315 -0.322658 0.100000 
1.834106 -0.294365 0.100000 
1.804524 -0.269606 0.100000 
1.763802 -0.237327 0.100000 
1.725843 -0.209379 0.100000 
1.688851 -0.184236 0.100000 
1.651333 -0.160637 0.100000 
1.613017 -0.138379 0.100000 
1.573934 -0.117524 0.100000 
1.534108 -0.098184 0.100000 
1.493533 -0.080669 0.100000 
1.452195 -0.065337 0.100000 
1.409692 -0.052531 0.100000 
1.364080 -0.042516 0.100000 
1.313024 -0.035541 0.100000 
1.273911 -0.033142 0.100000 
1.225240 -0.034908 0.100000 
1.160911 -0.043546 0.100000 
1.120968 -0.051286 0.100000 
1.074822 -0.061759 0.100000 
1.021710 -0.075302 0.100000 
1.960551 -0.419661 0.100000 
1.939154 -0.398420 0.100000 
1.918868 -0.378759 0.100000 
1.899619 -0.360562 0.100000 
1.863931 -0.328092 0.100000 
1.831489 -0.300079 0.100000 
1.801691 -0.275591 0.100000 
1.760675 -0.243700 0.100000 
1.722452 -0.216127 0.100000 
1.685216 -0.191357 0.100000 
1.647467 -0.168136 0.100000 
1.608936 -0.146257 0.100000 
1.569656 -0.125776 0.100000 
1.529657 -0.106797 0.100000 
1.488931 -0.089630 0.100000 
1.447466 -0.074637 0.100000 
1.404861 -0.062158 0.100000 
1.359170 -0.052465 0.100000 
1.308062 -0.045811 0.100000 
1.268968 -0.043537 0.100000 
1.220581 -0.044897 0.100000 
1.157051 -0.052060 0.100000 
1.117780 -0.058496 0.100000 
1.072530 -0.067197 0.100000 
1.020570 -0.078434 0.100000 
1.958841 -0.424360 0.100000 
1.937298 -0.403269 0.100000 
1.916873 -0.383757 0.100000 
1.897489 -0.365707 0.100000 
1.861548 -0.333526 0.100000 
1.828872 -0.305794 0.100000 
1.798858 -0.281576 0.100000 
1.757549 -0.250073 0.100000 
1.719061 -0.222875 0.100000 
1.681581 -0.198478 0.100000 
1.643602 -0.175635 0.100000 
1.604855 -0.154136 0.100000 
1.565379 -0.134027 0.100000 
1.525205 -0.115410 0.100000 
1.484328 -0.098592 0.100000 
1.442736 -0.083936 0.100000 
1.400029 -0.071785 0.100000 
1.354261 -0.062415 0.100000 
1.303099 -0.056081 0.100000 
1.264026 -0.053933 0.100000 
1.215922 -0.054885 0.100000 
1.153192 -0.060574 0.100000 
1.114593 -0.065706 0.100000 
1.070239 -0.072635 0.100000 
1.019430 -0.081566 0.100000 
1.957131 -0.429059 0.100000 
1.935443 -0.408118 0.100000 
1.914877 -0.388755 0.100000 
1.895359 -0.370852 0.100000 
1.859165 -0.338960 0.100000 
1.826254 -0.311508 0.100000 
1.796025 -0.287561 0.100000 
1.754422 -0.256447 0.100000 
1.715670 -0.229624 0.100000 
1.677945 -0.205599 0.100000 
1.639736 -0.183134 0.100000 
1.600774 -0.162014 0.100000 
1.561101 -0.142279 0.100000 
1.520753 -0.124023 0.100000 
1.479726 -0.107554 0.100000 
1.438007 -0.093236 0.100000 
1.395198 -0.081413 0.100000 
1.349352 -0.072364 0.100000 
1.298137 -0.066351 0.100000 
1.259083 -0.064329 0.100000 
1.211263 -0.064874 0.100000 
1.149332 -0.069088 0.100000 
1.111405 -0.072915 0.100000 
1.067947 -0.078073 0.100000 
1.018290 -0.084698 0.100000 
