VARIABLES = "CoordinateX", "CoordinateY", "CoordinateZ"
Zone T="FFD_vol0" I=9 J=2 K=2
DATAPACKING=POINT
0.840000 -0.002480 0.000000 
0.765115 0.123795 0.000000 
0.650099 0.244943 0.000000 
0.525886 0.278987 0.000000 
0.400000 0.272768 0.000000 
0.274114 0.278987 0.000000 
0.149901 0.244943 0.000000 
0.034885 0.123795 0.000000 
-0.040000 -0.002480 0.000000 
0.760000 -0.002480 0.000000 
0.602400 0.086063 0.000000 
0.456079 0.162510 0.000000 
0.398940 0.180651 0.000000 
0.400000 0.174643 0.000000 
0.401060 0.180651 0.000000 
0.343921 0.162510 0.000000 
0.197600 0.086063 0.000000 
0.040000 -0.002480 0.000000 
0.840000 -0.002480 0.100000 
0.765115 0.123795 0.100000 
0.650099 0.244943 0.100000 
0.525886 0.278987 0.100000 
0.400000 0.272768 0.100000 
0.274114 0.278987 0.100000 
0.149901 0.244943 0.100000 
0.034885 0.123795 0.100000 
-0.040000 -0.002480 0.100000 
0.760000 -0.002480 0.100000 
0.602400 0.086063 0.100000 
0.456079 0.162510 0.100000 
0.398940 0.180651 0.100000 
0.400000 0.174643 0.100000 
0.401060 0.180651 0.100000 
0.343921 0.162510 0.100000 
0.197600 0.086063 0.100000 
0.040000 -0.002480 0.100000 
Zone T="embedding_vol" I=25 J=4 K=4
DATAPACKING=POINT
0.840000 -0.002480 0.000000 
0.815669 0.037235 0.000000 
0.792549 0.072421 0.000000 
0.770562 0.103416 0.000000 
0.729683 0.154189 0.000000 
0.692417 0.192259 0.000000 
0.658151 0.220330 0.000000 
0.611070 0.248750 0.000000 
0.567506 0.264739 0.000000 
0.525607 0.272277 0.000000 
0.483841 0.275003 0.000000 
0.441952 0.275207 0.000000 
0.400000 0.274841 0.000000 
0.358048 0.275207 0.000000 
0.316159 0.275003 0.000000 
0.274393 0.272277 0.000000 
0.232494 0.264739 0.000000 
0.188930 0.248750 0.000000 
0.141849 0.220330 0.000000 
0.107583 0.192259 0.000000 
0.070317 0.154189 0.000000 
0.029438 0.103416 0.000000 
0.007451 0.072421 0.000000 
-0.015669 0.037235 0.000000 
-0.040000 -0.002480 0.000000 
0.813333 -0.002480 0.000000 
0.780618 0.033229 0.000000 
0.750637 0.064770 0.000000 
0.723182 0.092463 0.000000 
0.675015 0.137583 0.000000 
0.634448 0.171141 0.000000 
0.599813 0.195694 0.000000 
0.555850 0.220380 0.000000 
0.518958 0.234098 0.000000 
0.486618 0.240393 0.000000 
0.456617 0.242512 0.000000 
0.427970 0.242501 0.000000 
0.400000 0.242109 0.000000 
0.372030 0.242501 0.000000 
0.343383 0.242512 0.000000 
0.313382 0.240393 0.000000 
0.281042 0.234098 0.000000 
0.244150 0.220380 0.000000 
0.200187 0.195694 0.000000 
0.165552 0.171141 0.000000 
0.124985 0.137583 0.000000 
0.076818 0.092463 0.000000 
0.049363 0.064770 0.000000 
0.019382 0.033229 0.000000 
-0.013333 -0.002480 0.000000 
0.786667 -0.002480 0.000000 
0.745567 0.029223 0.000000 
0.708725 0.057120 0.000000 
0.675802 0.081511 0.000000 
0.620347 0.120976 0.000000 
0.576479 0.150024 0.000000 
0.541475 0.171058 0.000000 
0.500629 0.192011 0.000000 
0.470410 0.203457 0.000000 
0.447629 0.208510 0.000000 
0.429392 0.210021 0.000000 
0.413988 0.209796 0.000000 
0.400000 0.209377 0.000000 
0.386012 0.209796 0.000000 
0.370608 0.210021 0.000000 
0.352371 0.208510 0.000000 
0.329590 0.203457 0.000000 
0.299371 0.192011 0.000000 
0.258525 0.171058 0.000000 
0.223521 0.150024 0.000000 
0.179653 0.120976 0.000000 
0.124198 0.081511 0.000000 
0.091275 0.057120 0.000000 
0.054433 0.029223 0.000000 
0.013333 -0.002480 0.000000 
0.760000 -0.002480 0.000000 
0.710515 0.025218 0.000000 
0.666813 0.049470 0.000000 
0.628421 0.070558 0.000000 
0.565679 0.104369 0.000000 
0.518510 0.128906 0.000000 
0.483136 0.146422 0.000000 
0.445409 0.163641 0.000000 
0.421862 0.172816 0.000000 
0.408640 0.176626 0.000000 
0.402167 0.177530 0.000000 
0.400006 0.177090 0.000000 
0.400000 0.176646 0.000000 
0.399994 0.177090 0.000000 
0.397833 0.177530 0.000000 
0.391360 0.176626 0.000000 
0.378138 0.172816 0.000000 
0.354591 0.163641 0.000000 
0.316864 0.146422 0.000000 
0.281490 0.128906 0.000000 
0.234321 0.104369 0.000000 
0.171579 0.070558 0.000000 
0.133187 0.049470 0.000000 
0.089485 0.025218 0.000000 
0.040000 -0.002480 0.000000 
0.840000 -0.002480 0.033333 
0.815669 0.037235 0.033333 
0.792549 0.072421 0.033333 
0.770562 0.103416 0.033333 
0.729683 0.154189 0.033333 
0.692417 0.192259 0.033333 
0.658151 0.220330 0.033333 
0.611070 0.248750 0.033333 
0.567506 0.264739 0.033333 
0.525607 0.272277 0.033333 
0.483841 0.275003 0.033333 
0.441952 0.275207 0.033333 
0.400000 0.274841 0.033333 
0.358048 0.275207 0.033333 
0.316159 0.275003 0.033333 
0.274393 0.272277 0.033333 
0.232494 0.264739 0.033333 
0.188930 0.248750 0.033333 
0.141849 0.220330 0.033333 
0.107583 0.192259 0.033333 
0.070317 0.154189 0.033333 
0.029438 0.103416 0.033333 
0.007451 0.072421 0.033333 
-0.015669 0.037235 0.033333 
-0.040000 -0.002480 0.033333 
0.813333 -0.002480 0.033333 
0.780618 0.033229 0.033333 
0.750637 0.064770 0.033333 
0.723182 0.092463 0.033333 
0.675015 0.137583 0.033333 
0.634448 0.171141 0.033333 
0.599813 0.195694 0.033333 
0.555850 0.220380 0.033333 
0.518958 0.234098 0.033333 
0.486618 0.240393 0.033333 
0.456617 0.242512 0.033333 
0.427970 0.242501 0.033333 
0.400000 0.242109 0.033333 
0.372030 0.242501 0.033333 
0.343383 0.242512 0.033333 
0.313382 0.240393 0.033333 
0.281042 0.234098 0.033333 
0.244150 0.220380 0.033333 
0.200187 0.195694 0.033333 
0.165552 0.171141 0.033333 
0.124985 0.137583 0.033333 
0.076818 0.092463 0.033333 
0.049363 0.064770 0.033333 
0.019382 0.033229 0.033333 
-0.013333 -0.002480 0.033333 
0.786667 -0.002480 0.033333 
0.745567 0.029223 0.033333 
0.708725 0.057120 0.033333 
0.675802 0.081511 0.033333 
0.620347 0.120976 0.033333 
0.576479 0.150024 0.033333 
0.541475 0.171058 0.033333 
0.500629 0.192011 0.033333 
0.470410 0.203457 0.033333 
0.447629 0.208510 0.033333 
0.429392 0.210021 0.033333 
0.413988 0.209796 0.033333 
0.400000 0.209377 0.033333 
0.386012 0.209796 0.033333 
0.370608 0.210021 0.033333 
0.352371 0.208510 0.033333 
0.329590 0.203457 0.033333 
0.299371 0.192011 0.033333 
0.258525 0.171058 0.033333 
0.223521 0.150024 0.033333 
0.179653 0.120976 0.033333 
0.124198 0.081511 0.033333 
0.091275 0.057120 0.033333 
0.054433 0.029223 0.033333 
0.013333 -0.002480 0.033333 
0.760000 -0.002480 0.033333 
0.710515 0.025218 0.033333 
0.666813 0.049470 0.033333 
0.628421 0.070558 0.033333 
0.565679 0.104369 0.033333 
0.518510 0.128906 0.033333 
0.483136 0.146422 0.033333 
0.445409 0.163641 0.033333 
0.421862 0.172816 0.033333 
0.408640 0.176626 0.033333 
0.402167 0.177530 0.033333 
0.400006 0.177090 0.033333 
0.400000 0.176646 0.033333 
0.399994 0.177090 0.033333 
0.397833 0.177530 0.033333 
0.391360 0.176626 0.033333 
0.378138 0.172816 0.033333 
0.354591 0.163641 0.033333 
0.316864 0.146422 0.033333 
0.281490 0.128906 0.033333 
0.234321 0.104369 0.033333 
0.171579 0.070558 0.033333 
0.133187 0.049470 0.033333 
0.089485 0.025218 0.033333 
0.040000 -0.002480 0.033333 
0.840000 -0.002480 0.066667 
0.815669 0.037235 0.066667 
0.792549 0.072421 0.066667 
0.770562 0.103416 0.066667 
0.729683 0.154189 0.066667 
0.692417 0.192259 0.066667 
0.658151 0.220330 0.066667 
0.611070 0.248750 0.066667 
0.567506 0.264739 0.066667 
0.525607 0.272277 0.066667 
0.483841 0.275003 0.066667 
0.441952 0.275207 0.066667 
0.400000 0.274841 0.066667 
0.358048 0.275207 0.066667 
0.316159 0.275003 0.066667 
0.274393 0.272277 0.066667 
0.232494 0.264739 0.066667 
0.188930 0.248750 0.066667 
0.141849 0.220330 0.066667 
0.107583 0.192259 0.066667 
0.070317 0.154189 0.066667 
0.029438 0.103416 0.066667 
0.007451 0.072421 0.066667 
-0.015669 0.037235 0.066667 
-0.040000 -0.002480 0.066667 
0.813333 -0.002480 0.066667 
0.780618 0.033229 0.066667 
0.750637 0.064770 0.066667 
0.723182 0.092463 0.066667 
0.675015 0.137583 0.066667 
0.634448 0.171141 0.066667 
0.599813 0.195694 0.066667 
0.555850 0.220380 0.066667 
0.518958 0.234098 0.066667 
0.486618 0.240393 0.066667 
0.456617 0.242512 0.066667 
0.427970 0.242501 0.066667 
0.400000 0.242109 0.066667 
0.372030 0.242501 0.066667 
0.343383 0.242512 0.066667 
0.313382 0.240393 0.066667 
0.281042 0.234098 0.066667 
0.244150 0.220380 0.066667 
0.200187 0.195694 0.066667 
0.165552 0.171141 0.066667 
0.124985 0.137583 0.066667 
0.076818 0.092463 0.066667 
0.049363 0.064770 0.066667 
0.019382 0.033229 0.066667 
-0.013333 -0.002480 0.066667 
0.786667 -0.002480 0.066667 
0.745567 0.029223 0.066667 
0.708725 0.057120 0.066667 
0.675802 0.081511 0.066667 
0.620347 0.120976 0.066667 
0.576479 0.150024 0.066667 
0.541475 0.171058 0.066667 
0.500629 0.192011 0.066667 
0.470410 0.203457 0.066667 
0.447629 0.208510 0.066667 
0.429392 0.210021 0.066667 
0.413988 0.209796 0.066667 
0.400000 0.209377 0.066667 
0.386012 0.209796 0.066667 
0.370608 0.210021 0.066667 
0.352371 0.208510 0.066667 
0.329590 0.203457 0.066667 
0.299371 0.192011 0.066667 
0.258525 0.171058 0.066667 
0.223521 0.150024 0.066667 
0.179653 0.120976 0.066667 
0.124198 0.081511 0.066667 
0.091275 0.057120 0.066667 
0.054433 0.029223 0.066667 
0.013333 -0.002480 0.066667 
0.760000 -0.002480 0.066667 
0.710515 0.025218 0.066667 
0.666813 0.049470 0.066667 
0.628421 0.070558 0.066667 
0.565679 0.104369 0.066667 
0.518510 0.128906 0.066667 
0.483136 0.146422 0.066667 
0.445409 0.163641 0.066667 
0.421862 0.172816 0.066667 
0.408640 0.176626 0.066667 
0.402167 0.177530 0.066667 
0.400006 0.177090 0.066667 
0.400000 0.176646 0.066667 
0.399994 0.177090 0.066667 
0.397833 0.177530 0.066667 
0.391360 0.176626 0.066667 
0.378138 0.172816 0.066667 
0.354591 0.163641 0.066667 
0.316864 0.146422 0.066667 
0.281490 0.128906 0.066667 
0.234321 0.104369 0.066667 
0.171579 0.070558 0.066667 
0.133187 0.049470 0.066667 
0.089485 0.025218 0.066667 
0.040000 -0.002480 0.066667 
0.840000 -0.002480 0.100000 
0.815669 0.037235 0.100000 
0.792549 0.072421 0.100000 
0.770562 0.103416 0.100000 
0.729683 0.154189 0.100000 
0.692417 0.192259 0.100000 
0.658151 0.220330 0.100000 
0.611070 0.248750 0.100000 
0.567506 0.264739 0.100000 
0.525607 0.272277 0.100000 
0.483841 0.275003 0.100000 
0.441952 0.275207 0.100000 
0.400000 0.274841 0.100000 
0.358048 0.275207 0.100000 
0.316159 0.275003 0.100000 
0.274393 0.272277 0.100000 
0.232494 0.264739 0.100000 
0.188930 0.248750 0.100000 
0.141849 0.220330 0.100000 
0.107583 0.192259 0.100000 
0.070317 0.154189 0.100000 
0.029438 0.103416 0.100000 
0.007451 0.072421 0.100000 
-0.015669 0.037235 0.100000 
-0.040000 -0.002480 0.100000 
0.813333 -0.002480 0.100000 
0.780618 0.033229 0.100000 
0.750637 0.064770 0.100000 
0.723182 0.092463 0.100000 
0.675015 0.137583 0.100000 
0.634448 0.171141 0.100000 
0.599813 0.195694 0.100000 
0.555850 0.220380 0.100000 
0.518958 0.234098 0.100000 
0.486618 0.240393 0.100000 
0.456617 0.242512 0.100000 
0.427970 0.242501 0.100000 
0.400000 0.242109 0.100000 
0.372030 0.242501 0.100000 
0.343383 0.242512 0.100000 
0.313382 0.240393 0.100000 
0.281042 0.234098 0.100000 
0.244150 0.220380 0.100000 
0.200187 0.195694 0.100000 
0.165552 0.171141 0.100000 
0.124985 0.137583 0.100000 
0.076818 0.092463 0.100000 
0.049363 0.064770 0.100000 
0.019382 0.033229 0.100000 
-0.013333 -0.002480 0.100000 
0.786667 -0.002480 0.100000 
0.745567 0.029223 0.100000 
0.708725 0.057120 0.100000 
0.675802 0.081511 0.100000 
0.620347 0.120976 0.100000 
0.576479 0.150024 0.100000 
0.541475 0.171058 0.100000 
0.500629 0.192011 0.100000 
0.470410 0.203457 0.100000 
0.447629 0.208510 0.100000 
0.429392 0.210021 0.100000 
0.413988 0.209796 0.100000 
0.400000 0.209377 0.100000 
0.386012 0.209796 0.100000 
0.370608 0.210021 0.100000 
0.352371 0.208510 0.100000 
0.329590 0.203457 0.100000 
0.299371 0.192011 0.100000 
0.258525 0.171058 0.100000 
0.223521 0.150024 0.100000 
0.179653 0.120976 0.100000 
0.124198 0.081511 0.100000 
0.091275 0.057120 0.100000 
0.054433 0.029223 0.100000 
0.013333 -0.002480 0.100000 
0.760000 -0.002480 0.100000 
0.710515 0.025218 0.100000 
0.666813 0.049470 0.100000 
0.628421 0.070558 0.100000 
0.565679 0.104369 0.100000 
0.518510 0.128906 0.100000 
0.483136 0.146422 0.100000 
0.445409 0.163641 0.100000 
0.421862 0.172816 0.100000 
0.408640 0.176626 0.100000 
0.402167 0.177530 0.100000 
0.400006 0.177090 0.100000 
0.400000 0.176646 0.100000 
0.399994 0.177090 0.100000 
0.397833 0.177530 0.100000 
0.391360 0.176626 0.100000 
0.378138 0.172816 0.100000 
0.354591 0.163641 0.100000 
0.316864 0.146422 0.100000 
0.281490 0.128906 0.100000 
0.234321 0.104369 0.100000 
0.171579 0.070558 0.100000 
0.133187 0.049470 0.100000 
0.089485 0.025218 0.100000 
0.040000 -0.002480 0.100000 
Zone T="FFD_vol1" I=9 J=2 K=2
DATAPACKING=POINT
1.717326 -0.878534 0.000000 
1.665109 -0.779691 0.000000 
1.582191 -0.645683 0.000000 
1.487095 -0.518553 0.000000 
1.380156 -0.401262 0.000000 
1.261723 -0.295754 0.000000 
1.127970 -0.211931 0.000000 
0.979285 -0.158742 0.000000 
0.770114 -0.141785 0.000000 
1.706239 -0.892715 0.000000 
1.651983 -0.794997 0.000000 
1.565610 -0.663230 0.000000 
1.466754 -0.539018 0.000000 
1.356344 -0.424968 0.000000 
1.235252 -0.322472 0.000000 
1.099686 -0.241516 0.000000 
0.950211 -0.190482 0.000000 
0.762723 -0.151239 0.000000 
1.717326 -0.878534 0.100000 
1.665109 -0.779691 0.100000 
1.582191 -0.645683 0.100000 
1.487095 -0.518553 0.100000 
1.380156 -0.401262 0.100000 
1.261723 -0.295754 0.100000 
1.127970 -0.211931 0.100000 
0.979285 -0.158742 0.100000 
0.770114 -0.141785 0.100000 
1.706239 -0.892715 0.100000 
1.651983 -0.794997 0.100000 
1.565610 -0.663230 0.100000 
1.466754 -0.539018 0.100000 
1.356344 -0.424968 0.100000 
1.235252 -0.322472 0.100000 
1.099686 -0.241516 0.100000 
0.950211 -0.190482 0.100000 
0.762723 -0.151239 0.100000 
Zone T="embedding_vol" I=25 J=4 K=4
DATAPACKING=POINT
1.717326 -0.878534 0.000000 
1.700311 -0.846739 0.000000 
1.684044 -0.817141 0.000000 
1.668478 -0.789581 0.000000 
1.639251 -0.739928 0.000000 
1.612245 -0.696495 0.000000 
1.587071 -0.657997 0.000000 
1.551865 -0.607016 0.000000 
1.518390 -0.561872 0.000000 
1.485121 -0.520193 0.000000 
1.450793 -0.480015 0.000000 
1.415162 -0.441002 0.000000 
1.378240 -0.403226 0.000000 
1.340016 -0.366809 0.000000 
1.300373 -0.332067 0.000000 
1.259169 -0.299368 0.000000 
1.215831 -0.268909 0.000000 
1.168051 -0.240205 0.000000 
1.113091 -0.212604 0.000000 
1.069928 -0.194624 0.000000 
1.014459 -0.177433 0.000000 
0.938785 -0.161623 0.000000 
0.890903 -0.154419 0.000000 
0.835009 -0.147782 0.000000 
0.770114 -0.141785 0.000000 
1.713631 -0.883261 0.000000 
1.696393 -0.851591 0.000000 
1.679911 -0.822118 0.000000 
1.664136 -0.794681 0.000000 
1.634515 -0.745275 0.000000 
1.607140 -0.702084 0.000000 
1.581623 -0.663821 0.000000 
1.545944 -0.613182 0.000000 
1.512035 -0.568373 0.000000 
1.478357 -0.527032 0.000000 
1.443633 -0.487201 0.000000 
1.407624 -0.448540 0.000000 
1.370348 -0.411115 0.000000 
1.331799 -0.375041 0.000000 
1.291860 -0.340635 0.000000 
1.250393 -0.308266 0.000000 
1.206821 -0.278132 0.000000 
1.158837 -0.249754 0.000000 
1.103698 -0.222486 0.000000 
1.060510 -0.204649 0.000000 
1.005507 -0.187094 0.000000 
0.931275 -0.169896 0.000000 
0.884631 -0.161455 0.000000 
0.830398 -0.153132 0.000000 
0.767651 -0.144937 0.000000 
1.709935 -0.887988 0.000000 
1.692474 -0.856443 0.000000 
1.675777 -0.827094 0.000000 
1.659794 -0.799782 0.000000 
1.629778 -0.750622 0.000000 
1.602035 -0.707672 0.000000 
1.576175 -0.669645 0.000000 
1.540024 -0.619349 0.000000 
1.505680 -0.574875 0.000000 
1.471593 -0.533872 0.000000 
1.436474 -0.494388 0.000000 
1.400086 -0.456079 0.000000 
1.362456 -0.419004 0.000000 
1.323581 -0.383273 0.000000 
1.283348 -0.349204 0.000000 
1.241616 -0.317164 0.000000 
1.197811 -0.287355 0.000000 
1.149622 -0.259303 0.000000 
1.094305 -0.232368 0.000000 
1.051091 -0.214674 0.000000 
0.996556 -0.196754 0.000000 
0.923766 -0.178169 0.000000 
0.878359 -0.168491 0.000000 
0.825788 -0.158482 0.000000 
0.765187 -0.148088 0.000000 
1.706239 -0.892715 0.000000 
1.688556 -0.861295 0.000000 
1.671643 -0.832071 0.000000 
1.655452 -0.804883 0.000000 
1.625041 -0.755968 0.000000 
1.596930 -0.713261 0.000000 
1.570727 -0.675470 0.000000 
1.534103 -0.625515 0.000000 
1.499325 -0.581377 0.000000 
1.464828 -0.540712 0.000000 
1.429314 -0.501574 0.000000 
1.392549 -0.463618 0.000000 
1.354564 -0.426893 0.000000 
1.315363 -0.391506 0.000000 
1.274835 -0.357772 0.000000 
1.232840 -0.326062 0.000000 
1.188801 -0.296578 0.000000 
1.140408 -0.268852 0.000000 
1.084912 -0.242250 0.000000 
1.041672 -0.224700 0.000000 
0.987604 -0.206414 0.000000 
0.916256 -0.186442 0.000000 
0.872086 -0.175526 0.000000 
0.821178 -0.163831 0.000000 
0.762723 -0.151239 0.000000 
1.717326 -0.878534 0.033333 
1.700311 -0.846739 0.033333 
1.684044 -0.817141 0.033333 
1.668478 -0.789581 0.033333 
1.639251 -0.739928 0.033333 
1.612245 -0.696495 0.033333 
1.587071 -0.657997 0.033333 
1.551865 -0.607016 0.033333 
1.518390 -0.561872 0.033333 
1.485121 -0.520193 0.033333 
1.450793 -0.480015 0.033333 
1.415162 -0.441002 0.033333 
1.378240 -0.403226 0.033333 
1.340016 -0.366809 0.033333 
1.300373 -0.332067 0.033333 
1.259169 -0.299368 0.033333 
1.215831 -0.268909 0.033333 
1.168051 -0.240205 0.033333 
1.113091 -0.212604 0.033333 
1.069928 -0.194624 0.033333 
1.014459 -0.177433 0.033333 
0.938785 -0.161623 0.033333 
0.890903 -0.154419 0.033333 
0.835009 -0.147782 0.033333 
0.770114 -0.141785 0.033333 
1.713631 -0.883261 0.033333 
1.696393 -0.851591 0.033333 
1.679911 -0.822118 0.033333 
1.664136 -0.794681 0.033333 
1.634515 -0.745275 0.033333 
1.607140 -0.702084 0.033333 
1.581623 -0.663821 0.033333 
1.545944 -0.613182 0.033333 
1.512035 -0.568373 0.033333 
1.478357 -0.527032 0.033333 
1.443633 -0.487201 0.033333 
1.407624 -0.448540 0.033333 
1.370348 -0.411115 0.033333 
1.331799 -0.375041 0.033333 
1.291860 -0.340635 0.033333 
1.250393 -0.308266 0.033333 
1.206821 -0.278132 0.033333 
1.158837 -0.249754 0.033333 
1.103698 -0.222486 0.033333 
1.060510 -0.204649 0.033333 
1.005507 -0.187094 0.033333 
0.931275 -0.169896 0.033333 
0.884631 -0.161455 0.033333 
0.830398 -0.153132 0.033333 
0.767651 -0.144937 0.033333 
1.709935 -0.887988 0.033333 
1.692474 -0.856443 0.033333 
1.675777 -0.827094 0.033333 
1.659794 -0.799782 0.033333 
1.629778 -0.750622 0.033333 
1.602035 -0.707672 0.033333 
1.576175 -0.669645 0.033333 
1.540024 -0.619349 0.033333 
1.505680 -0.574875 0.033333 
1.471593 -0.533872 0.033333 
1.436474 -0.494388 0.033333 
1.400086 -0.456079 0.033333 
1.362456 -0.419004 0.033333 
1.323581 -0.383273 0.033333 
1.283348 -0.349204 0.033333 
1.241616 -0.317164 0.033333 
1.197811 -0.287355 0.033333 
1.149622 -0.259303 0.033333 
1.094305 -0.232368 0.033333 
1.051091 -0.214674 0.033333 
0.996556 -0.196754 0.033333 
0.923766 -0.178169 0.033333 
0.878359 -0.168491 0.033333 
0.825788 -0.158482 0.033333 
0.765187 -0.148088 0.033333 
1.706239 -0.892715 0.033333 
1.688556 -0.861295 0.033333 
1.671643 -0.832071 0.033333 
1.655452 -0.804883 0.033333 
1.625041 -0.755968 0.033333 
1.596930 -0.713261 0.033333 
1.570727 -0.675470 0.033333 
1.534103 -0.625515 0.033333 
1.499325 -0.581377 0.033333 
1.464828 -0.540712 0.033333 
1.429314 -0.501574 0.033333 
1.392549 -0.463618 0.033333 
1.354564 -0.426893 0.033333 
1.315363 -0.391506 0.033333 
1.274835 -0.357772 0.033333 
1.232840 -0.326062 0.033333 
1.188801 -0.296578 0.033333 
1.140408 -0.268852 0.033333 
1.084912 -0.242250 0.033333 
1.041672 -0.224700 0.033333 
0.987604 -0.206414 0.033333 
0.916256 -0.186442 0.033333 
0.872086 -0.175526 0.033333 
0.821178 -0.163831 0.033333 
0.762723 -0.151239 0.033333 
1.717326 -0.878534 0.066667 
1.700311 -0.846739 0.066667 
1.684044 -0.817141 0.066667 
1.668478 -0.789581 0.066667 
1.639251 -0.739928 0.066667 
1.612245 -0.696495 0.066667 
1.587071 -0.657997 0.066667 
1.551865 -0.607016 0.066667 
1.518390 -0.561872 0.066667 
1.485121 -0.520193 0.066667 
1.450793 -0.480015 0.066667 
1.415162 -0.441002 0.066667 
1.378240 -0.403226 0.066667 
1.340016 -0.366809 0.066667 
1.300373 -0.332067 0.066667 
1.259169 -0.299368 0.066667 
1.215831 -0.268909 0.066667 
1.168051 -0.240205 0.066667 
1.113091 -0.212604 0.066667 
1.069928 -0.194624 0.066667 
1.014459 -0.177433 0.066667 
0.938785 -0.161623 0.066667 
0.890903 -0.154419 0.066667 
0.835009 -0.147782 0.066667 
0.770114 -0.141785 0.066667 
1.713631 -0.883261 0.066667 
1.696393 -0.851591 0.066667 
1.679911 -0.822118 0.066667 
1.664136 -0.794681 0.066667 
1.634515 -0.745275 0.066667 
1.607140 -0.702084 0.066667 
1.581623 -0.663821 0.066667 
1.545944 -0.613182 0.066667 
1.512035 -0.568373 0.066667 
1.478357 -0.527032 0.066667 
1.443633 -0.487201 0.066667 
1.407624 -0.448540 0.066667 
1.370348 -0.411115 0.066667 
1.331799 -0.375041 0.066667 
1.291860 -0.340635 0.066667 
1.250393 -0.308266 0.066667 
1.206821 -0.278132 0.066667 
1.158837 -0.249754 0.066667 
1.103698 -0.222486 0.066667 
1.060510 -0.204649 0.066667 
1.005507 -0.187094 0.066667 
0.931275 -0.169896 0.066667 
0.884631 -0.161455 0.066667 
0.830398 -0.153132 0.066667 
0.767651 -0.144937 0.066667 
1.709935 -0.887988 0.066667 
1.692474 -0.856443 0.066667 
1.675777 -0.827094 0.066667 
1.659794 -0.799782 0.066667 
1.629778 -0.750622 0.066667 
1.602035 -0.707672 0.066667 
1.576175 -0.669645 0.066667 
1.540024 -0.619349 0.066667 
1.505680 -0.574875 0.066667 
1.471593 -0.533872 0.066667 
1.436474 -0.494388 0.066667 
1.400086 -0.456079 0.066667 
1.362456 -0.419004 0.066667 
1.323581 -0.383273 0.066667 
1.283348 -0.349204 0.066667 
1.241616 -0.317164 0.066667 
1.197811 -0.287355 0.066667 
1.149622 -0.259303 0.066667 
1.094305 -0.232368 0.066667 
1.051091 -0.214674 0.066667 
0.996556 -0.196754 0.066667 
0.923766 -0.178169 0.066667 
0.878359 -0.168491 0.066667 
0.825788 -0.158482 0.066667 
0.765187 -0.148088 0.066667 
1.706239 -0.892715 0.066667 
1.688556 -0.861295 0.066667 
1.671643 -0.832071 0.066667 
1.655452 -0.804883 0.066667 
1.625041 -0.755968 0.066667 
1.596930 -0.713261 0.066667 
1.570727 -0.675470 0.066667 
1.534103 -0.625515 0.066667 
1.499325 -0.581377 0.066667 
1.464828 -0.540712 0.066667 
1.429314 -0.501574 0.066667 
1.392549 -0.463618 0.066667 
1.354564 -0.426893 0.066667 
1.315363 -0.391506 0.066667 
1.274835 -0.357772 0.066667 
1.232840 -0.326062 0.066667 
1.188801 -0.296578 0.066667 
1.140408 -0.268852 0.066667 
1.084912 -0.242250 0.066667 
1.041672 -0.224700 0.066667 
0.987604 -0.206414 0.066667 
0.916256 -0.186442 0.066667 
0.872086 -0.175526 0.066667 
0.821178 -0.163831 0.066667 
0.762723 -0.151239 0.066667 
1.717326 -0.878534 0.100000 
1.700311 -0.846739 0.100000 
1.684044 -0.817141 0.100000 
1.668478 -0.789581 0.100000 
1.639251 -0.739928 0.100000 
1.612245 -0.696495 0.100000 
1.587071 -0.657997 0.100000 
1.551865 -0.607016 0.100000 
1.518390 -0.561872 0.100000 
1.485121 -0.520193 0.100000 
1.450793 -0.480015 0.100000 
1.415162 -0.441002 0.100000 
1.378240 -0.403226 0.100000 
1.340016 -0.366809 0.100000 
1.300373 -0.332067 0.100000 
1.259169 -0.299368 0.100000 
1.215831 -0.268909 0.100000 
1.168051 -0.240205 0.100000 
1.113091 -0.212604 0.100000 
1.069928 -0.194624 0.100000 
1.014459 -0.177433 0.100000 
0.938785 -0.161623 0.100000 
0.890903 -0.154419 0.100000 
0.835009 -0.147782 0.100000 
0.770114 -0.141785 0.100000 
1.713631 -0.883261 0.100000 
1.696393 -0.851591 0.100000 
1.679911 -0.822118 0.100000 
1.664136 -0.794681 0.100000 
1.634515 -0.745275 0.100000 
1.607140 -0.702084 0.100000 
1.581623 -0.663821 0.100000 
1.545944 -0.613182 0.100000 
1.512035 -0.568373 0.100000 
1.478357 -0.527032 0.100000 
1.443633 -0.487201 0.100000 
1.407624 -0.448540 0.100000 
1.370348 -0.411115 0.100000 
1.331799 -0.375041 0.100000 
1.291860 -0.340635 0.100000 
1.250393 -0.308266 0.100000 
1.206821 -0.278132 0.100000 
1.158837 -0.249754 0.100000 
1.103698 -0.222486 0.100000 
1.060510 -0.204649 0.100000 
1.005507 -0.187094 0.100000 
0.931275 -0.169896 0.100000 
0.884631 -0.161455 0.100000 
0.830398 -0.153132 0.100000 
0.767651 -0.144937 0.100000 
1.709935 -0.887988 0.100000 
1.692474 -0.856443 0.100000 
1.675777 -0.827094 0.100000 
1.659794 -0.799782 0.100000 
1.629778 -0.750622 0.100000 
1.602035 -0.707672 0.100000 
1.576175 -0.669645 0.100000 
1.540024 -0.619349 0.100000 
1.505680 -0.574875 0.100000 
1.471593 -0.533872 0.100000 
1.436474 -0.494388 0.100000 
1.400086 -0.456079 0.100000 
1.362456 -0.419004 0.100000 
1.323581 -0.383273 0.100000 
1.283348 -0.349204 0.100000 
1.241616 -0.317164 0.100000 
1.197811 -0.287355 0.100000 
1.149622 -0.259303 0.100000 
1.094305 -0.232368 0.100000 
1.051091 -0.214674 0.100000 
0.996556 -0.196754 0.100000 
0.923766 -0.178169 0.100000 
0.878359 -0.168491 0.100000 
0.825788 -0.158482 0.100000 
0.765187 -0.148088 0.100000 
1.706239 -0.892715 0.100000 
1.688556 -0.861295 0.100000 
1.671643 -0.832071 0.100000 
1.655452 -0.804883 0.100000 
1.625041 -0.755968 0.100000 
1.596930 -0.713261 0.100000 
1.570727 -0.675470 0.100000 
1.534103 -0.625515 0.100000 
1.499325 -0.581377 0.100000 
1.464828 -0.540712 0.100000 
1.429314 -0.501574 0.100000 
1.392549 -0.463618 0.100000 
1.354564 -0.426893 0.100000 
1.315363 -0.391506 0.100000 
1.274835 -0.357772 0.100000 
1.232840 -0.326062 0.100000 
1.188801 -0.296578 0.100000 
1.140408 -0.268852 0.100000 
1.084912 -0.242250 0.100000 
1.041672 -0.224700 0.100000 
0.987604 -0.206414 0.100000 
0.916256 -0.186442 0.100000 
0.872086 -0.175526 0.100000 
0.821178 -0.163831 0.100000 
0.762723 -0.151239 0.100000 
