VARIABLES = "CoordinateX", "CoordinateY", "CoordinateZ"
Zone T="FFD_vol0" I=9 J=2 K=2
DATAPACKING=POINT
1.400000 -0.004133 0.000000 
1.275192 0.206324 0.000000 
1.083499 0.408239 0.000000 
0.876477 0.464978 0.000000 
0.666667 0.454614 0.000000 
0.456857 0.464978 0.000000 
0.249834 0.408239 0.000000 
0.058142 0.206324 0.000000 
-0.066667 -0.004133 0.000000 
1.266667 -0.004133 0.000000 
1.004000 0.143439 0.000000 
0.760132 0.270850 0.000000 
0.664899 0.301085 0.000000 
0.666667 0.291071 0.000000 
0.668434 0.301085 0.000000 
0.573201 0.270850 0.000000 
0.329333 0.143439 0.000000 
0.066667 -0.004133 0.000000 
1.400000 -0.004133 0.100000 
1.275192 0.206324 0.100000 
1.083499 0.408239 0.100000 
0.876477 0.464978 0.100000 
0.666667 0.454614 0.100000 
0.456857 0.464978 0.100000 
0.249834 0.408239 0.100000 
0.058142 0.206324 0.100000 
-0.066667 -0.004133 0.100000 
1.266667 -0.004133 0.100000 
1.004000 0.143439 0.100000 
0.760132 0.270850 0.100000 
0.664899 0.301085 0.100000 
0.666667 0.291071 0.100000 
0.668434 0.301085 0.100000 
0.573201 0.270850 0.100000 
0.329333 0.143439 0.100000 
0.066667 -0.004133 0.100000 
Zone T="embedding_vol" I=25 J=4 K=4
DATAPACKING=POINT
1.400000 -0.004133 0.000000 
1.359449 0.062058 0.000000 
1.320915 0.120701 0.000000 
1.284270 0.172360 0.000000 
1.216138 0.256982 0.000000 
1.154028 0.320431 0.000000 
1.096918 0.367217 0.000000 
1.018450 0.414583 0.000000 
0.945844 0.441232 0.000000 
0.876012 0.453794 0.000000 
0.806402 0.458338 0.000000 
0.736586 0.458678 0.000000 
0.666667 0.458069 0.000000 
0.596747 0.458678 0.000000 
0.526931 0.458338 0.000000 
0.457321 0.453794 0.000000 
0.387490 0.441232 0.000000 
0.314883 0.414583 0.000000 
0.236415 0.367217 0.000000 
0.179305 0.320431 0.000000 
0.117196 0.256982 0.000000 
0.049063 0.172360 0.000000 
0.012419 0.120701 0.000000 
-0.026115 0.062058 0.000000 
-0.066667 -0.004133 0.000000 
1.355556 -0.004133 0.000000 
1.301030 0.055382 0.000000 
1.251061 0.107951 0.000000 
1.205303 0.154106 0.000000 
1.125025 0.229304 0.000000 
1.057413 0.285235 0.000000 
0.999688 0.326157 0.000000 
0.926416 0.367300 0.000000 
0.864930 0.390163 0.000000 
0.811030 0.400655 0.000000 
0.761028 0.404186 0.000000 
0.713283 0.404169 0.000000 
0.666667 0.403516 0.000000 
0.620050 0.404169 0.000000 
0.572306 0.404186 0.000000 
0.522303 0.400655 0.000000 
0.468403 0.390163 0.000000 
0.406917 0.367300 0.000000 
0.333645 0.326157 0.000000 
0.275920 0.285235 0.000000 
0.208309 0.229304 0.000000 
0.128030 0.154106 0.000000 
0.082272 0.107951 0.000000 
0.032304 0.055382 0.000000 
-0.022222 -0.004133 0.000000 
1.311111 -0.004133 0.000000 
1.242611 0.048706 0.000000 
1.181208 0.095200 0.000000 
1.126336 0.135851 0.000000 
1.033911 0.201626 0.000000 
0.960798 0.250039 0.000000 
0.902458 0.285097 0.000000 
0.834382 0.320018 0.000000 
0.784017 0.339095 0.000000 
0.746048 0.347516 0.000000 
0.715653 0.350035 0.000000 
0.689980 0.349659 0.000000 
0.666667 0.348962 0.000000 
0.643354 0.349659 0.000000 
0.617680 0.350035 0.000000 
0.587285 0.347516 0.000000 
0.549316 0.339095 0.000000 
0.498951 0.320018 0.000000 
0.430876 0.285097 0.000000 
0.372535 0.250039 0.000000 
0.299422 0.201626 0.000000 
0.206997 0.135851 0.000000 
0.152125 0.095200 0.000000 
0.090722 0.048706 0.000000 
0.022222 -0.004133 0.000000 
1.266667 -0.004133 0.000000 
1.184192 0.042030 0.000000 
1.111355 0.082450 0.000000 
1.047369 0.117596 0.000000 
0.942798 0.173949 0.000000 
0.864183 0.214843 0.000000 
0.805227 0.244036 0.000000 
0.742348 0.272735 0.000000 
0.703104 0.288026 0.000000 
0.681066 0.294377 0.000000 
0.670279 0.295883 0.000000 
0.666676 0.295150 0.000000 
0.666667 0.294409 0.000000 
0.666657 0.295150 0.000000 
0.663055 0.295883 0.000000 
0.652267 0.294377 0.000000 
0.630229 0.288026 0.000000 
0.590985 0.272735 0.000000 
0.528106 0.244036 0.000000 
0.469150 0.214843 0.000000 
0.390535 0.173949 0.000000 
0.285965 0.117596 0.000000 
0.221978 0.082450 0.000000 
0.149141 0.042030 0.000000 
0.066667 -0.004133 0.000000 
1.400000 -0.004133 0.033333 
1.359449 0.062058 0.033333 
1.320915 0.120701 0.033333 
1.284270 0.172360 0.033333 
1.216138 0.256982 0.033333 
1.154028 0.320431 0.033333 
1.096918 0.367217 0.033333 
1.018450 0.414583 0.033333 
0.945844 0.441232 0.033333 
0.876012 0.453794 0.033333 
0.806402 0.458338 0.033333 
0.736586 0.458678 0.033333 
0.666667 0.458069 0.033333 
0.596747 0.458678 0.033333 
0.526931 0.458338 0.033333 
0.457321 0.453794 0.033333 
0.387490 0.441232 0.033333 
0.314883 0.414583 0.033333 
0.236415 0.367217 0.033333 
0.179305 0.320431 0.033333 
0.117196 0.256982 0.033333 
0.049063 0.172360 0.033333 
0.012419 0.120701 0.033333 
-0.026115 0.062058 0.033333 
-0.066667 -0.004133 0.033333 
1.355556 -0.004133 0.033333 
1.301030 0.055382 0.033333 
1.251061 0.107951 0.033333 
1.205303 0.154106 0.033333 
1.125025 0.229304 0.033333 
1.057413 0.285235 0.033333 
0.999688 0.326157 0.033333 
0.926416 0.367300 0.033333 
0.864930 0.390163 0.033333 
0.811030 0.400655 0.033333 
0.761028 0.404186 0.033333 
0.713283 0.404169 0.033333 
0.666667 0.403516 0.033333 
0.620050 0.404169 0.033333 
0.572306 0.404186 0.033333 
0.522303 0.400655 0.033333 
0.468403 0.390163 0.033333 
0.406917 0.367300 0.033333 
0.333645 0.326157 0.033333 
0.275920 0.285235 0.033333 
0.208309 0.229304 0.033333 
0.128030 0.154106 0.033333 
0.082272 0.107951 0.033333 
0.032304 0.055382 0.033333 
-0.022222 -0.004133 0.033333 
1.311111 -0.004133 0.033333 
1.242611 0.048706 0.033333 
1.181208 0.095200 0.033333 
1.126336 0.135851 0.033333 
1.033911 0.201626 0.033333 
0.960798 0.250039 0.033333 
0.902458 0.285097 0.033333 
0.834382 0.320018 0.033333 
0.784017 0.339095 0.033333 
0.746048 0.347516 0.033333 
0.715653 0.350035 0.033333 
0.689980 0.349659 0.033333 
0.666667 0.348962 0.033333 
0.643354 0.349659 0.033333 
0.617680 0.350035 0.033333 
0.587285 0.347516 0.033333 
0.549316 0.339095 0.033333 
0.498951 0.320018 0.033333 
0.430876 0.285097 0.033333 
0.372535 0.250039 0.033333 
0.299422 0.201626 0.033333 
0.206997 0.135851 0.033333 
0.152125 0.095200 0.033333 
0.090722 0.048706 0.033333 
0.022222 -0.004133 0.033333 
1.266667 -0.004133 0.033333 
1.184192 0.042030 0.033333 
1.111355 0.082450 0.033333 
1.047369 0.117596 0.033333 
0.942798 0.173949 0.033333 
0.864183 0.214843 0.033333 
0.805227 0.244036 0.033333 
0.742348 0.272735 0.033333 
0.703104 0.288026 0.033333 
0.681066 0.294377 0.033333 
0.670279 0.295883 0.033333 
0.666676 0.295150 0.033333 
0.666667 0.294409 0.033333 
0.666657 0.295150 0.033333 
0.663055 0.295883 0.033333 
0.652267 0.294377 0.033333 
0.630229 0.288026 0.033333 
0.590985 0.272735 0.033333 
0.528106 0.244036 0.033333 
0.469150 0.214843 0.033333 
0.390535 0.173949 0.033333 
0.285965 0.117596 0.033333 
0.221978 0.082450 0.033333 
0.149141 0.042030 0.033333 
0.066667 -0.004133 0.033333 
1.400000 -0.004133 0.066667 
1.359449 0.062058 0.066667 
1.320915 0.120701 0.066667 
1.284270 0.172360 0.066667 
1.216138 0.256982 0.066667 
1.154028 0.320431 0.066667 
1.096918 0.367217 0.066667 
1.018450 0.414583 0.066667 
0.945844 0.441232 0.066667 
0.876012 0.453794 0.066667 
0.806402 0.458338 0.066667 
0.736586 0.458678 0.066667 
0.666667 0.458069 0.066667 
0.596747 0.458678 0.066667 
0.526931 0.458338 0.066667 
0.457321 0.453794 0.066667 
0.387490 0.441232 0.066667 
0.314883 0.414583 0.066667 
0.236415 0.367217 0.066667 
0.179305 0.320431 0.066667 
0.117196 0.256982 0.066667 
0.049063 0.172360 0.066667 
0.012419 0.120701 0.066667 
-0.026115 0.062058 0.066667 
-0.066667 -0.004133 0.066667 
1.355556 -0.004133 0.066667 
1.301030 0.055382 0.066667 
1.251061 0.107951 0.066667 
1.205303 0.154106 0.066667 
1.125025 0.229304 0.066667 
1.057413 0.285235 0.066667 
0.999688 0.326157 0.066667 
0.926416 0.367300 0.066667 
0.864930 0.390163 0.066667 
0.811030 0.400655 0.066667 
0.761028 0.404186 0.066667 
0.713283 0.404169 0.066667 
0.666667 0.403516 0.066667 
0.620050 0.404169 0.066667 
0.572306 0.404186 0.066667 
0.522303 0.400655 0.066667 
0.468403 0.390163 0.066667 
0.406917 0.367300 0.066667 
0.333645 0.326157 0.066667 
0.275920 0.285235 0.066667 
0.208309 0.229304 0.066667 
0.128030 0.154106 0.066667 
0.082272 0.107951 0.066667 
0.032304 0.055382 0.066667 
-0.022222 -0.004133 0.066667 
1.311111 -0.004133 0.066667 
1.242611 0.048706 0.066667 
1.181208 0.095200 0.066667 
1.126336 0.135851 0.066667 
1.033911 0.201626 0.066667 
0.960798 0.250039 0.066667 
0.902458 0.285097 0.066667 
0.834382 0.320018 0.066667 
0.784017 0.339095 0.066667 
0.746048 0.347516 0.066667 
0.715653 0.350035 0.066667 
0.689980 0.349659 0.066667 
0.666667 0.348962 0.066667 
0.643354 0.349659 0.066667 
0.617680 0.350035 0.066667 
0.587285 0.347516 0.066667 
0.549316 0.339095 0.066667 
0.498951 0.320018 0.066667 
0.430876 0.285097 0.066667 
0.372535 0.250039 0.066667 
0.299422 0.201626 0.066667 
0.206997 0.135851 0.066667 
0.152125 0.095200 0.066667 
0.090722 0.048706 0.066667 
0.022222 -0.004133 0.066667 
1.266667 -0.004133 0.066667 
1.184192 0.042030 0.066667 
1.111355 0.082450 0.066667 
1.047369 0.117596 0.066667 
0.942798 0.173949 0.066667 
0.864183 0.214843 0.066667 
0.805227 0.244036 0.066667 
0.742348 0.272735 0.066667 
0.703104 0.288026 0.066667 
0.681066 0.294377 0.066667 
0.670279 0.295883 0.066667 
0.666676 0.295150 0.066667 
0.666667 0.294409 0.066667 
0.666657 0.295150 0.066667 
0.663055 0.295883 0.066667 
0.652267 0.294377 0.066667 
0.630229 0.288026 0.066667 
0.590985 0.272735 0.066667 
0.528106 0.244036 0.066667 
0.469150 0.214843 0.066667 
0.390535 0.173949 0.066667 
0.285965 0.117596 0.066667 
0.221978 0.082450 0.066667 
0.149141 0.042030 0.066667 
0.066667 -0.004133 0.066667 
1.400000 -0.004133 0.100000 
1.359449 0.062058 0.100000 
1.320915 0.120701 0.100000 
1.284270 0.172360 0.100000 
1.216138 0.256982 0.100000 
1.154028 0.320431 0.100000 
1.096918 0.367217 0.100000 
1.018450 0.414583 0.100000 
0.945844 0.441232 0.100000 
0.876012 0.453794 0.100000 
0.806402 0.458338 0.100000 
0.736586 0.458678 0.100000 
0.666667 0.458069 0.100000 
0.596747 0.458678 0.100000 
0.526931 0.458338 0.100000 
0.457321 0.453794 0.100000 
0.387490 0.441232 0.100000 
0.314883 0.414583 0.100000 
0.236415 0.367217 0.100000 
0.179305 0.320431 0.100000 
0.117196 0.256982 0.100000 
0.049063 0.172360 0.100000 
0.012419 0.120701 0.100000 
-0.026115 0.062058 0.100000 
-0.066667 -0.004133 0.100000 
1.355556 -0.004133 0.100000 
1.301030 0.055382 0.100000 
1.251061 0.107951 0.100000 
1.205303 0.154106 0.100000 
1.125025 0.229304 0.100000 
1.057413 0.285235 0.100000 
0.999688 0.326157 0.100000 
0.926416 0.367300 0.100000 
0.864930 0.390163 0.100000 
0.811030 0.400655 0.100000 
0.761028 0.404186 0.100000 
0.713283 0.404169 0.100000 
0.666667 0.403516 0.100000 
0.620050 0.404169 0.100000 
0.572306 0.404186 0.100000 
0.522303 0.400655 0.100000 
0.468403 0.390163 0.100000 
0.406917 0.367300 0.100000 
0.333645 0.326157 0.100000 
0.275920 0.285235 0.100000 
0.208309 0.229304 0.100000 
0.128030 0.154106 0.100000 
0.082272 0.107951 0.100000 
0.032304 0.055382 0.100000 
-0.022222 -0.004133 0.100000 
1.311111 -0.004133 0.100000 
1.242611 0.048706 0.100000 
1.181208 0.095200 0.100000 
1.126336 0.135851 0.100000 
1.033911 0.201626 0.100000 
0.960798 0.250039 0.100000 
0.902458 0.285097 0.100000 
0.834382 0.320018 0.100000 
0.784017 0.339095 0.100000 
0.746048 0.347516 0.100000 
0.715653 0.350035 0.100000 
0.689980 0.349659 0.100000 
0.666667 0.348962 0.100000 
0.643354 0.349659 0.100000 
0.617680 0.350035 0.100000 
0.587285 0.347516 0.100000 
0.549316 0.339095 0.100000 
0.498951 0.320018 0.100000 
0.430876 0.285097 0.100000 
0.372535 0.250039 0.100000 
0.299422 0.201626 0.100000 
0.206997 0.135851 0.100000 
0.152125 0.095200 0.100000 
0.090722 0.048706 0.100000 
0.022222 -0.004133 0.100000 
1.266667 -0.004133 0.100000 
1.184192 0.042030 0.100000 
1.111355 0.082450 0.100000 
1.047369 0.117596 0.100000 
0.942798 0.173949 0.100000 
0.864183 0.214843 0.100000 
0.805227 0.244036 0.100000 
0.742348 0.272735 0.100000 
0.703104 0.288026 0.100000 
0.681066 0.294377 0.100000 
0.670279 0.295883 0.100000 
0.666676 0.295150 0.100000 
0.666667 0.294409 0.100000 
0.666657 0.295150 0.100000 
0.663055 0.295883 0.100000 
0.652267 0.294377 0.100000 
0.630229 0.288026 0.100000 
0.590985 0.272735 0.100000 
0.528106 0.244036 0.100000 
0.469150 0.214843 0.100000 
0.390535 0.173949 0.100000 
0.285965 0.117596 0.100000 
0.221978 0.082450 0.100000 
0.149141 0.042030 0.100000 
0.066667 -0.004133 0.100000 
Zone T="FFD_vol1" I=9 J=2 K=2
DATAPACKING=POINT
1.847247 -0.474690 0.000000 
1.820153 -0.418808 0.000000 
1.776687 -0.342812 0.000000 
1.726328 -0.270401 0.000000 
1.669205 -0.203225 0.000000 
1.605473 -0.142371 0.000000 
1.532820 -0.093262 0.000000 
1.451287 -0.060877 0.000000 
1.335476 -0.047447 0.000000 
1.840819 -0.482351 0.000000 
1.812571 -0.427054 0.000000 
1.767144 -0.352236 0.000000 
1.714641 -0.281373 0.000000 
1.655529 -0.215930 0.000000 
1.590263 -0.156697 0.000000 
1.516548 -0.109146 0.000000 
1.434535 -0.077941 0.000000 
1.331191 -0.052553 0.000000 
1.847247 -0.474690 0.100000 
1.820153 -0.418808 0.100000 
1.776687 -0.342812 0.100000 
1.726328 -0.270401 0.100000 
1.669205 -0.203225 0.100000 
1.605473 -0.142371 0.100000 
1.532820 -0.093262 0.100000 
1.451287 -0.060877 0.100000 
1.335476 -0.047447 0.100000 
1.840819 -0.482351 0.100000 
1.812571 -0.427054 0.100000 
1.767144 -0.352236 0.100000 
1.714641 -0.281373 0.100000 
1.655529 -0.215930 0.100000 
1.590263 -0.156697 0.100000 
1.516548 -0.109146 0.100000 
1.434535 -0.077941 0.100000 
1.331191 -0.052553 0.100000 
Zone T="embedding_vol" I=25 J=4 K=4
DATAPACKING=POINT
1.847247 -0.474690 0.000000 
1.838411 -0.456710 0.000000 
1.829947 -0.439965 0.000000 
1.821833 -0.424363 0.000000 
1.806559 -0.396234 0.000000 
1.792398 -0.371601 0.000000 
1.779160 -0.349742 0.000000 
1.760592 -0.320760 0.000000 
1.742872 -0.295053 0.000000 
1.725201 -0.271273 0.000000 
1.706912 -0.248306 0.000000 
1.687878 -0.225961 0.000000 
1.668103 -0.204279 0.000000 
1.647579 -0.183325 0.000000 
1.626235 -0.163275 0.000000 
1.603986 -0.144329 0.000000 
1.580508 -0.126585 0.000000 
1.554531 -0.109731 0.000000 
1.524545 -0.093351 0.000000 
1.500925 -0.082539 0.000000 
1.470458 -0.071930 0.000000 
1.428745 -0.061699 0.000000 
1.402298 -0.056780 0.000000 
1.371392 -0.052022 0.000000 
1.335476 -0.047447 0.000000 
1.845105 -0.477244 0.000000 
1.836142 -0.459329 0.000000 
1.827556 -0.442648 0.000000 
1.819325 -0.427112 0.000000 
1.803827 -0.399112 0.000000 
1.789457 -0.374606 0.000000 
1.776024 -0.352871 0.000000 
1.757186 -0.324071 0.000000 
1.739219 -0.298541 0.000000 
1.721314 -0.274941 0.000000 
1.702799 -0.252159 0.000000 
1.683548 -0.230002 0.000000 
1.663570 -0.208507 0.000000 
1.642859 -0.187738 0.000000 
1.621345 -0.167869 0.000000 
1.598942 -0.149100 0.000000 
1.575329 -0.131533 0.000000 
1.549231 -0.114855 0.000000 
1.519140 -0.098657 0.000000 
1.495504 -0.087925 0.000000 
1.465302 -0.077121 0.000000 
1.424417 -0.066148 0.000000 
1.398681 -0.060566 0.000000 
1.368729 -0.054904 0.000000 
1.334048 -0.049149 0.000000 
1.842962 -0.479797 0.000000 
1.833873 -0.461948 0.000000 
1.825166 -0.445332 0.000000 
1.816816 -0.429861 0.000000 
1.801094 -0.401990 0.000000 
1.786515 -0.377611 0.000000 
1.772887 -0.356001 0.000000 
1.753780 -0.327381 0.000000 
1.735565 -0.302029 0.000000 
1.717427 -0.278608 0.000000 
1.698686 -0.256012 0.000000 
1.679218 -0.234043 0.000000 
1.659036 -0.212736 0.000000 
1.638138 -0.192151 0.000000 
1.616454 -0.172463 0.000000 
1.593898 -0.153872 0.000000 
1.570149 -0.136480 0.000000 
1.543932 -0.119980 0.000000 
1.513735 -0.103964 0.000000 
1.490082 -0.093310 0.000000 
1.460146 -0.082313 0.000000 
1.420088 -0.070597 0.000000 
1.395063 -0.064352 0.000000 
1.366067 -0.057785 0.000000 
1.332619 -0.050851 0.000000 
1.840819 -0.482351 0.000000 
1.831604 -0.464566 0.000000 
1.822775 -0.448016 0.000000 
1.814307 -0.432610 0.000000 
1.798361 -0.404867 0.000000 
1.783573 -0.380615 0.000000 
1.769750 -0.359130 0.000000 
1.750374 -0.330691 0.000000 
1.731912 -0.305517 0.000000 
1.713540 -0.282276 0.000000 
1.694573 -0.259864 0.000000 
1.674888 -0.238084 0.000000 
1.654503 -0.216965 0.000000 
1.633417 -0.196564 0.000000 
1.611563 -0.177056 0.000000 
1.588855 -0.158644 0.000000 
1.564969 -0.141428 0.000000 
1.538632 -0.125105 0.000000 
1.508330 -0.109270 0.000000 
1.484660 -0.098695 0.000000 
1.454991 -0.087505 0.000000 
1.415760 -0.075046 0.000000 
1.391446 -0.068138 0.000000 
1.363404 -0.060667 0.000000 
1.331191 -0.052553 0.000000 
1.847247 -0.474690 0.033333 
1.838411 -0.456710 0.033333 
1.829947 -0.439965 0.033333 
1.821833 -0.424363 0.033333 
1.806559 -0.396234 0.033333 
1.792398 -0.371601 0.033333 
1.779160 -0.349742 0.033333 
1.760592 -0.320760 0.033333 
1.742872 -0.295053 0.033333 
1.725201 -0.271273 0.033333 
1.706912 -0.248306 0.033333 
1.687878 -0.225961 0.033333 
1.668103 -0.204279 0.033333 
1.647579 -0.183325 0.033333 
1.626235 -0.163275 0.033333 
1.603986 -0.144329 0.033333 
1.580508 -0.126585 0.033333 
1.554531 -0.109731 0.033333 
1.524545 -0.093351 0.033333 
1.500925 -0.082539 0.033333 
1.470458 -0.071930 0.033333 
1.428745 -0.061699 0.033333 
1.402298 -0.056780 0.033333 
1.371392 -0.052022 0.033333 
1.335476 -0.047447 0.033333 
1.845105 -0.477244 0.033333 
1.836142 -0.459329 0.033333 
1.827556 -0.442648 0.033333 
1.819325 -0.427112 0.033333 
1.803827 -0.399112 0.033333 
1.789457 -0.374606 0.033333 
1.776024 -0.352871 0.033333 
1.757186 -0.324071 0.033333 
1.739219 -0.298541 0.033333 
1.721314 -0.274941 0.033333 
1.702799 -0.252159 0.033333 
1.683548 -0.230002 0.033333 
1.663570 -0.208507 0.033333 
1.642859 -0.187738 0.033333 
1.621345 -0.167869 0.033333 
1.598942 -0.149100 0.033333 
1.575329 -0.131533 0.033333 
1.549231 -0.114855 0.033333 
1.519140 -0.098657 0.033333 
1.495504 -0.087925 0.033333 
1.465302 -0.077121 0.033333 
1.424417 -0.066148 0.033333 
1.398681 -0.060566 0.033333 
1.368729 -0.054904 0.033333 
1.334048 -0.049149 0.033333 
1.842962 -0.479797 0.033333 
1.833873 -0.461948 0.033333 
1.825166 -0.445332 0.033333 
1.816816 -0.429861 0.033333 
1.801094 -0.401990 0.033333 
1.786515 -0.377611 0.033333 
1.772887 -0.356001 0.033333 
1.753780 -0.327381 0.033333 
1.735565 -0.302029 0.033333 
1.717427 -0.278608 0.033333 
1.698686 -0.256012 0.033333 
1.679218 -0.234043 0.033333 
1.659036 -0.212736 0.033333 
1.638138 -0.192151 0.033333 
1.616454 -0.172463 0.033333 
1.593898 -0.153872 0.033333 
1.570149 -0.136480 0.033333 
1.543932 -0.119980 0.033333 
1.513735 -0.103964 0.033333 
1.490082 -0.093310 0.033333 
1.460146 -0.082313 0.033333 
1.420088 -0.070597 0.033333 
1.395063 -0.064352 0.033333 
1.366067 -0.057785 0.033333 
1.332619 -0.050851 0.033333 
1.840819 -0.482351 0.033333 
1.831604 -0.464566 0.033333 
1.822775 -0.448016 0.033333 
1.814307 -0.432610 0.033333 
1.798361 -0.404867 0.033333 
1.783573 -0.380615 0.033333 
1.769750 -0.359130 0.033333 
1.750374 -0.330691 0.033333 
1.731912 -0.305517 0.033333 
1.713540 -0.282276 0.033333 
1.694573 -0.259864 0.033333 
1.674888 -0.238084 0.033333 
1.654503 -0.216965 0.033333 
1.633417 -0.196564 0.033333 
1.611563 -0.177056 0.033333 
1.588855 -0.158644 0.033333 
1.564969 -0.141428 0.033333 
1.538632 -0.125105 0.033333 
1.508330 -0.109270 0.033333 
1.484660 -0.098695 0.033333 
1.454991 -0.087505 0.033333 
1.415760 -0.075046 0.033333 
1.391446 -0.068138 0.033333 
1.363404 -0.060667 0.033333 
1.331191 -0.052553 0.033333 
1.847247 -0.474690 0.066667 
1.838411 -0.456710 0.066667 
1.829947 -0.439965 0.066667 
1.821833 -0.424363 0.066667 
1.806559 -0.396234 0.066667 
1.792398 -0.371601 0.066667 
1.779160 -0.349742 0.066667 
1.760592 -0.320760 0.066667 
1.742872 -0.295053 0.066667 
1.725201 -0.271273 0.066667 
1.706912 -0.248306 0.066667 
1.687878 -0.225961 0.066667 
1.668103 -0.204279 0.066667 
1.647579 -0.183325 0.066667 
1.626235 -0.163275 0.066667 
1.603986 -0.144329 0.066667 
1.580508 -0.126585 0.066667 
1.554531 -0.109731 0.066667 
1.524545 -0.093351 0.066667 
1.500925 -0.082539 0.066667 
1.470458 -0.071930 0.066667 
1.428745 -0.061699 0.066667 
1.402298 -0.056780 0.066667 
1.371392 -0.052022 0.066667 
1.335476 -0.047447 0.066667 
1.845105 -0.477244 0.066667 
1.836142 -0.459329 0.066667 
1.827556 -0.442648 0.066667 
1.819325 -0.427112 0.066667 
1.803827 -0.399112 0.066667 
1.789457 -0.374606 0.066667 
1.776024 -0.352871 0.066667 
1.757186 -0.324071 0.066667 
1.739219 -0.298541 0.066667 
1.721314 -0.274941 0.066667 
1.702799 -0.252159 0.066667 
1.683548 -0.230002 0.066667 
1.663570 -0.208507 0.066667 
1.642859 -0.187738 0.066667 
1.621345 -0.167869 0.066667 
1.598942 -0.149100 0.066667 
1.575329 -0.131533 0.066667 
1.549231 -0.114855 0.066667 
1.519140 -0.098657 0.066667 
1.495504 -0.087925 0.066667 
1.465302 -0.077121 0.066667 
1.424417 -0.066148 0.066667 
1.398681 -0.060566 0.066667 
1.368729 -0.054904 0.066667 
1.334048 -0.049149 0.066667 
1.842962 -0.479797 0.066667 
1.833873 -0.461948 0.066667 
1.825166 -0.445332 0.066667 
1.816816 -0.429861 0.066667 
1.801094 -0.401990 0.066667 
1.786515 -0.377611 0.066667 
1.772887 -0.356001 0.066667 
1.753780 -0.327381 0.066667 
1.735565 -0.302029 0.066667 
1.717427 -0.278608 0.066667 
1.698686 -0.256012 0.066667 
1.679218 -0.234043 0.066667 
1.659036 -0.212736 0.066667 
1.638138 -0.192151 0.066667 
1.616454 -0.172463 0.066667 
1.593898 -0.153872 0.066667 
1.570149 -0.136480 0.066667 
1.543932 -0.119980 0.066667 
1.513735 -0.103964 0.066667 
1.490082 -0.093310 0.066667 
1.460146 -0.082313 0.066667 
1.420088 -0.070597 0.066667 
1.395063 -0.064352 0.066667 
1.366067 -0.057785 0.066667 
1.332619 -0.050851 0.066667 
1.840819 -0.482351 0.066667 
1.831604 -0.464566 0.066667 
1.822775 -0.448016 0.066667 
1.814307 -0.432610 0.066667 
1.798361 -0.404867 0.066667 
1.783573 -0.380615 0.066667 
1.769750 -0.359130 0.066667 
1.750374 -0.330691 0.066667 
1.731912 -0.305517 0.066667 
1.713540 -0.282276 0.066667 
1.694573 -0.259864 0.066667 
1.674888 -0.238084 0.066667 
1.654503 -0.216965 0.066667 
1.633417 -0.196564 0.066667 
1.611563 -0.177056 0.066667 
1.588855 -0.158644 0.066667 
1.564969 -0.141428 0.066667 
1.538632 -0.125105 0.066667 
1.508330 -0.109270 0.066667 
1.484660 -0.098695 0.066667 
1.454991 -0.087505 0.066667 
1.415760 -0.075046 0.066667 
1.391446 -0.068138 0.066667 
1.363404 -0.060667 0.066667 
1.331191 -0.052553 0.066667 
1.847247 -0.474690 0.100000 
1.838411 -0.456710 0.100000 
1.829947 -0.439965 0.100000 
1.821833 -0.424363 0.100000 
1.806559 -0.396234 0.100000 
1.792398 -0.371601 0.100000 
1.779160 -0.349742 0.100000 
1.760592 -0.320760 0.100000 
1.742872 -0.295053 0.100000 
1.725201 -0.271273 0.100000 
1.706912 -0.248306 0.100000 
1.687878 -0.225961 0.100000 
1.668103 -0.204279 0.100000 
1.647579 -0.183325 0.100000 
1.626235 -0.163275 0.100000 
1.603986 -0.144329 0.100000 
1.580508 -0.126585 0.100000 
1.554531 -0.109731 0.100000 
1.524545 -0.093351 0.100000 
1.500925 -0.082539 0.100000 
1.470458 -0.071930 0.100000 
1.428745 -0.061699 0.100000 
1.402298 -0.056780 0.100000 
1.371392 -0.052022 0.100000 
1.335476 -0.047447 0.100000 
1.845105 -0.477244 0.100000 
1.836142 -0.459329 0.100000 
1.827556 -0.442648 0.100000 
1.819325 -0.427112 0.100000 
1.803827 -0.399112 0.100000 
1.789457 -0.374606 0.100000 
1.776024 -0.352871 0.100000 
1.757186 -0.324071 0.100000 
1.739219 -0.298541 0.100000 
1.721314 -0.274941 0.100000 
1.702799 -0.252159 0.100000 
1.683548 -0.230002 0.100000 
1.663570 -0.208507 0.100000 
1.642859 -0.187738 0.100000 
1.621345 -0.167869 0.100000 
1.598942 -0.149100 0.100000 
1.575329 -0.131533 0.100000 
1.549231 -0.114855 0.100000 
1.519140 -0.098657 0.100000 
1.495504 -0.087925 0.100000 
1.465302 -0.077121 0.100000 
1.424417 -0.066148 0.100000 
1.398681 -0.060566 0.100000 
1.368729 -0.054904 0.100000 
1.334048 -0.049149 0.100000 
1.842962 -0.479797 0.100000 
1.833873 -0.461948 0.100000 
1.825166 -0.445332 0.100000 
1.816816 -0.429861 0.100000 
1.801094 -0.401990 0.100000 
1.786515 -0.377611 0.100000 
1.772887 -0.356001 0.100000 
1.753780 -0.327381 0.100000 
1.735565 -0.302029 0.100000 
1.717427 -0.278608 0.100000 
1.698686 -0.256012 0.100000 
1.679218 -0.234043 0.100000 
1.659036 -0.212736 0.100000 
1.638138 -0.192151 0.100000 
1.616454 -0.172463 0.100000 
1.593898 -0.153872 0.100000 
1.570149 -0.136480 0.100000 
1.543932 -0.119980 0.100000 
1.513735 -0.103964 0.100000 
1.490082 -0.093310 0.100000 
1.460146 -0.082313 0.100000 
1.420088 -0.070597 0.100000 
1.395063 -0.064352 0.100000 
1.366067 -0.057785 0.100000 
1.332619 -0.050851 0.100000 
1.840819 -0.482351 0.100000 
1.831604 -0.464566 0.100000 
1.822775 -0.448016 0.100000 
1.814307 -0.432610 0.100000 
1.798361 -0.404867 0.100000 
1.783573 -0.380615 0.100000 
1.769750 -0.359130 0.100000 
1.750374 -0.330691 0.100000 
1.731912 -0.305517 0.100000 
1.713540 -0.282276 0.100000 
1.694573 -0.259864 0.100000 
1.674888 -0.238084 0.100000 
1.654503 -0.216965 0.100000 
1.633417 -0.196564 0.100000 
1.611563 -0.177056 0.100000 
1.588855 -0.158644 0.100000 
1.564969 -0.141428 0.100000 
1.538632 -0.125105 0.100000 
1.508330 -0.109270 0.100000 
1.484660 -0.098695 0.100000 
1.454991 -0.087505 0.100000 
1.415760 -0.075046 0.100000 
1.391446 -0.068138 0.100000 
1.363404 -0.060667 0.100000 
1.331191 -0.052553 0.100000 
